 DBCSR| CPU Multiplication driver                                           BLAS (U)
 DBCSR| Multrec recursion limit                                              512 (U)
 DBCSR| Multiplication stack size                                           1000 (D)
 DBCSR| Maximum elements for images                                    UNLIMITED (U)
 DBCSR| Multiplicative factor virtual images                                   1 (U)
 DBCSR| Use multiplication densification                                       T (D)
 DBCSR| Multiplication size stacks                                             3 (U)
 DBCSR| Use memory pool for CPU allocation                                     F (U)
 DBCSR| Number of 3D layers                                               SINGLE (U)
 DBCSR| Use MPI memory allocation                                              F (U)
 DBCSR| Use RMA algorithm                                                      F (U)
 DBCSR| Use Communication thread                                               T (U)
 DBCSR| Communication thread load                                             45 (D)
 DBCSR| MPI: My process id                                                     0
 DBCSR| MPI: Number of processes                                             128
 DBCSR| OMP: Current number of threads                                        12
 DBCSR| OMP: Max number of threads                                            12
 DBCSR| Split modifier for TAS multiplication algorithm                  1.0E+00 (U)


  **** **** ******  **  PROGRAM STARTED AT               2025-03-08 10:17:12.892
 ***** ** ***  *** **   PROGRAM STARTED ON                          f01r01c03s09
 **    ****   ******    PROGRAM STARTED BY                               di38fab
 ***** **    ** ** **   PROGRAM PROCESS ID                               1648977
  **** **  *******  **  PROGRAM STARTED IN /hppfs/scratch/04/di38fab/04_TMD/3_WS
                                           2__/TZV2Pnonaug

 CP2K| version string:                 CP2K version 2025.1 (Development Version)
 CP2K| source code revision number:                                  git:47877ba
 CP2K| cp2kflags: omp libint fftw3 libxc parallel scalapack max_contr=4         
 CP2K| is freely available from                            https://www.cp2k.org/
 CP2K| Program compiled at                          Thu Feb 20 16:00:34 CET 2025
 CP2K| Program compiled on                                               login04
 CP2K| Program compiled for                                        Supermuc-foss
 CP2K| Data directory path          /hppfs/work/pn36zo/di38fab/newcp2k/cp2k/data
 CP2K| Input file name                                                    GW.inp

 GLOBAL| Force Environment number                                              1
 GLOBAL| Basis set file name                                        BASIS_MOLOPT
 GLOBAL| Potential file name            /hppfs/work/pn36zo/di38fab/cp2k/data/GTH
 GLOBAL| MM Potential file name                                     MM_POTENTIAL
 GLOBAL| Coordinate file name                                      __STD_INPUT__
 GLOBAL| Method name                                                        CP2K
 GLOBAL| Project name                                                        WS2
 GLOBAL| Run type                                                         ENERGY
 GLOBAL| FFT library                                                       FFTW3
 GLOBAL| Diagonalization library                                       ScaLAPACK
 GLOBAL| DGEMM library                                                      BLAS
 GLOBAL| Orthonormality check for eigenvectors                          DISABLED
 GLOBAL| Matrix multiplication library                                 ScaLAPACK
 GLOBAL| All-to-all communication in single precision                          F
 GLOBAL| FFTs using library dependent lengths                                  F
 GLOBAL| Grid backend                                                       AUTO
 GLOBAL| Global print level                                               MEDIUM
 GLOBAL| MPI I/O enabled                                                       T
 GLOBAL| Total number of message passing processes                           128
 GLOBAL| Number of threads for this process                                   12
 GLOBAL| This output is from process                                           0
 GLOBAL| OpenMP stack size per thread (OMP_STACKSIZE)                    default
 GLOBAL| CPU model name             Intel(R) Xeon(R) Platinum 8174 CPU @ 3.10GHz

 MEMORY| system memory details [Kb]
 MEMORY|                        rank 0           min           max       average
 MEMORY| MemTotal            792068884     792068880     792068924     792068890
 MEMORY| MemFree             778773708     778594212     779915816     778909904
 MEMORY| Buffers                     0             0             0             0
 MEMORY| Cached                2328272       2314232       2403032       2335233
 MEMORY| Slab                  1196872        928172       1229676       1179526
 MEMORY| SReclaimable           263824        199176        273412        263998
 MEMORY| MemLikelyFree       781365804     781194160     782441180     781509137


 *** Fundamental physical constants (SI units) ***

 *** Literature: B. J. Mohr and B. N. Taylor,
 ***             CODATA recommended values of the fundamental physical
 ***             constants: 2006, Web Version 5.1
 ***             http://physics.nist.gov/constants

 Speed of light in vacuum [m/s]                             2.99792458000000E+08
 Magnetic constant or permeability of vacuum [N/A**2]       1.25663706143592E-06
 Electric constant or permittivity of vacuum [F/m]          8.85418781762039E-12
 Planck constant (h) [J*s]                                  6.62606896000000E-34
 Planck constant (h-bar) [J*s]                              1.05457162825177E-34
 Elementary charge [C]                                      1.60217648700000E-19
 Electron mass [kg]                                         9.10938215000000E-31
 Electron g factor [ ]                                     -2.00231930436220E+00
 Proton mass [kg]                                           1.67262163700000E-27
 Fine-structure constant                                    7.29735253760000E-03
 Rydberg constant [1/m]                                     1.09737315685270E+07
 Avogadro constant [1/mol]                                  6.02214179000000E+23
 Boltzmann constant [J/K]                                   1.38065040000000E-23
 Atomic mass unit [kg]                                      1.66053878200000E-27
 Bohr radius [m]                                            5.29177208590000E-11

 *** Conversion factors ***

 [u] -> [a.u.]                                              1.82288848426455E+03
 [Angstrom] -> [Bohr] = [a.u.]                              1.88972613288564E+00
 [a.u.] = [Bohr] -> [Angstrom]                              5.29177208590000E-01
 [a.u.] -> [s]                                              2.41888432650478E-17
 [a.u.] -> [fs]                                             2.41888432650478E-02
 [a.u.] -> [J]                                              4.35974393937059E-18
 [a.u.] -> [N]                                              8.23872205491840E-08
 [a.u.] -> [K]                                              3.15774647902944E+05
 [a.u.] -> [kJ/mol]                                         2.62549961709828E+03
 [a.u.] -> [kcal/mol]                                       6.27509468713739E+02
 [a.u.] -> [Pa]                                             2.94210107994716E+13
 [a.u.] -> [bar]                                            2.94210107994716E+08
 [a.u.] -> [atm]                                            2.90362800883016E+08
 [a.u.] -> [eV]                                             2.72113838565563E+01
 [a.u.] -> [Hz]                                             6.57968392072181E+15
 [a.u.] -> [1/cm] (wave numbers)                            2.19474631370540E+05
 [a.u./Bohr**2] -> [1/cm]                                   5.14048714338585E+03
 

 CELL_TOP| Volume [angstrom^3]:                                       131.860110
 CELL_TOP| Vector a [angstrom     3.186     0.000     0.000   |a| =     3.186000
 CELL_TOP| Vector b [angstrom    -1.593     2.759     0.000   |b| =     3.186000
 CELL_TOP| Vector c [angstrom     0.000     0.000    15.000   |c| =    15.000000
 CELL_TOP| Angle (b,c), alpha [degree]:                                90.000000
 CELL_TOP| Angle (a,c), beta  [degree]:                                90.000000
 CELL_TOP| Angle (a,b), gamma [degree]:                               120.000000
 CELL_TOP| Numerically orthorhombic:                                          NO
 CELL_TOP| Periodicity                                                        XY

 GENERATE|  Preliminary Number of Bonds generated:                             0
 GENERATE|  Achieved consistency in connectivity generation.

 CELL| Volume [angstrom^3]:                                           131.860110
 CELL| Vector a [angstrom]:       3.186     0.000     0.000   |a| =     3.186000
 CELL| Vector b [angstrom]:      -1.593     2.759     0.000   |b| =     3.186000
 CELL| Vector c [angstrom]:       0.000     0.000    15.000   |c| =    15.000000
 CELL| Angle (b,c), alpha [degree]:                                    90.000000
 CELL| Angle (a,c), beta  [degree]:                                    90.000000
 CELL| Angle (a,b), gamma [degree]:                                   120.000000
 CELL| Numerically orthorhombic:                                              NO
 CELL| Periodicity                                                            XY

 CELL_REF| Volume [angstrom^3]:                                       131.860110
 CELL_REF| Vector a [angstrom     3.186     0.000     0.000   |a| =     3.186000
 CELL_REF| Vector b [angstrom    -1.593     2.759     0.000   |b| =     3.186000
 CELL_REF| Vector c [angstrom     0.000     0.000    15.000   |c| =    15.000000
 CELL_REF| Angle (b,c), alpha [degree]:                                90.000000
 CELL_REF| Angle (a,c), beta  [degree]:                                90.000000
 CELL_REF| Angle (a,b), gamma [degree]:                               120.000000
 CELL_REF| Numerically orthorhombic:                                          NO
 CELL_REF| Periodicity                                                        XY

 *** WARNING in cryssym.F:180 :: Symmetry library SPGLIB not available ***


 *******************************************************************************
                                    Kpoints
 *******************************************************************************
 BRILLOUIN| K-point scheme                                        Monkhorst-Pack
 BRILLOUIN| K-Point grid                                            32   32    1
 BRILLOUIN| Accuracy in Symmetry determination                      0.100000E-05
 BRILLOUIN| K-Point point group symmetrization                               OFF
 BRILLOUIN| Wavefunction type                                            COMPLEX
 BRILLOUIN| List of Kpoints [2 Pi/Bohr]                                      512
 BRILLOUIN| Number           Weight            X              Y              Z
 BRILLOUIN|     1           0.00195       -0.48438       -0.48438        0.00000
 BRILLOUIN|     2           0.00195       -0.48438       -0.45312        0.00000
 BRILLOUIN|     3           0.00195       -0.48438       -0.42188        0.00000
 BRILLOUIN|     4           0.00195       -0.48438       -0.39062        0.00000
 BRILLOUIN|     5           0.00195       -0.48438       -0.35938        0.00000
 BRILLOUIN|     6           0.00195       -0.48438       -0.32812        0.00000
 BRILLOUIN|     7           0.00195       -0.48438       -0.29688        0.00000
 BRILLOUIN|     8           0.00195       -0.48438       -0.26562        0.00000
 BRILLOUIN|     9           0.00195       -0.48438       -0.23438        0.00000
 BRILLOUIN|    10           0.00195       -0.48438       -0.20312        0.00000
 BRILLOUIN|    11           0.00195       -0.48438       -0.17188        0.00000
 BRILLOUIN|    12           0.00195       -0.48438       -0.14062        0.00000
 BRILLOUIN|    13           0.00195       -0.48438       -0.10938        0.00000
 BRILLOUIN|    14           0.00195       -0.48438       -0.07812        0.00000
 BRILLOUIN|    15           0.00195       -0.48438       -0.04688        0.00000
 BRILLOUIN|    16           0.00195       -0.48438       -0.01562        0.00000
 BRILLOUIN|    17           0.00195       -0.48438        0.01562        0.00000
 BRILLOUIN|    18           0.00195       -0.48438        0.04688        0.00000
 BRILLOUIN|    19           0.00195       -0.48438        0.07812        0.00000
 BRILLOUIN|    20           0.00195       -0.48438        0.10938        0.00000
 BRILLOUIN|    21           0.00195       -0.48438        0.14062        0.00000
 BRILLOUIN|    22           0.00195       -0.48438        0.17188        0.00000
 BRILLOUIN|    23           0.00195       -0.48438        0.20312        0.00000
 BRILLOUIN|    24           0.00195       -0.48438        0.23438        0.00000
 BRILLOUIN|    25           0.00195       -0.48438        0.26562        0.00000
 BRILLOUIN|    26           0.00195       -0.48438        0.29688        0.00000
 BRILLOUIN|    27           0.00195       -0.48438        0.32812        0.00000
 BRILLOUIN|    28           0.00195       -0.48438        0.35938        0.00000
 BRILLOUIN|    29           0.00195       -0.48438        0.39062        0.00000
 BRILLOUIN|    30           0.00195       -0.48438        0.42188        0.00000
 BRILLOUIN|    31           0.00195       -0.48438        0.45312        0.00000
 BRILLOUIN|    32           0.00195       -0.48438        0.48438        0.00000
 BRILLOUIN|    33           0.00195       -0.45312       -0.48438        0.00000
 BRILLOUIN|    34           0.00195       -0.45312       -0.45312        0.00000
 BRILLOUIN|    35           0.00195       -0.45312       -0.42188        0.00000
 BRILLOUIN|    36           0.00195       -0.45312       -0.39062        0.00000
 BRILLOUIN|    37           0.00195       -0.45312       -0.35938        0.00000
 BRILLOUIN|    38           0.00195       -0.45312       -0.32812        0.00000
 BRILLOUIN|    39           0.00195       -0.45312       -0.29688        0.00000
 BRILLOUIN|    40           0.00195       -0.45312       -0.26562        0.00000
 BRILLOUIN|    41           0.00195       -0.45312       -0.23438        0.00000
 BRILLOUIN|    42           0.00195       -0.45312       -0.20312        0.00000
 BRILLOUIN|    43           0.00195       -0.45312       -0.17188        0.00000
 BRILLOUIN|    44           0.00195       -0.45312       -0.14062        0.00000
 BRILLOUIN|    45           0.00195       -0.45312       -0.10938        0.00000
 BRILLOUIN|    46           0.00195       -0.45312       -0.07812        0.00000
 BRILLOUIN|    47           0.00195       -0.45312       -0.04688        0.00000
 BRILLOUIN|    48           0.00195       -0.45312       -0.01562        0.00000
 BRILLOUIN|    49           0.00195       -0.45312        0.01562        0.00000
 BRILLOUIN|    50           0.00195       -0.45312        0.04688        0.00000
 BRILLOUIN|    51           0.00195       -0.45312        0.07812        0.00000
 BRILLOUIN|    52           0.00195       -0.45312        0.10938        0.00000
 BRILLOUIN|    53           0.00195       -0.45312        0.14062        0.00000
 BRILLOUIN|    54           0.00195       -0.45312        0.17188        0.00000
 BRILLOUIN|    55           0.00195       -0.45312        0.20312        0.00000
 BRILLOUIN|    56           0.00195       -0.45312        0.23438        0.00000
 BRILLOUIN|    57           0.00195       -0.45312        0.26562        0.00000
 BRILLOUIN|    58           0.00195       -0.45312        0.29688        0.00000
 BRILLOUIN|    59           0.00195       -0.45312        0.32812        0.00000
 BRILLOUIN|    60           0.00195       -0.45312        0.35938        0.00000
 BRILLOUIN|    61           0.00195       -0.45312        0.39062        0.00000
 BRILLOUIN|    62           0.00195       -0.45312        0.42188        0.00000
 BRILLOUIN|    63           0.00195       -0.45312        0.45312        0.00000
 BRILLOUIN|    64           0.00195       -0.45312        0.48438        0.00000
 BRILLOUIN|    65           0.00195       -0.42188       -0.48438        0.00000
 BRILLOUIN|    66           0.00195       -0.42188       -0.45312        0.00000
 BRILLOUIN|    67           0.00195       -0.42188       -0.42188        0.00000
 BRILLOUIN|    68           0.00195       -0.42188       -0.39062        0.00000
 BRILLOUIN|    69           0.00195       -0.42188       -0.35938        0.00000
 BRILLOUIN|    70           0.00195       -0.42188       -0.32812        0.00000
 BRILLOUIN|    71           0.00195       -0.42188       -0.29688        0.00000
 BRILLOUIN|    72           0.00195       -0.42188       -0.26562        0.00000
 BRILLOUIN|    73           0.00195       -0.42188       -0.23438        0.00000
 BRILLOUIN|    74           0.00195       -0.42188       -0.20312        0.00000
 BRILLOUIN|    75           0.00195       -0.42188       -0.17188        0.00000
 BRILLOUIN|    76           0.00195       -0.42188       -0.14062        0.00000
 BRILLOUIN|    77           0.00195       -0.42188       -0.10938        0.00000
 BRILLOUIN|    78           0.00195       -0.42188       -0.07812        0.00000
 BRILLOUIN|    79           0.00195       -0.42188       -0.04688        0.00000
 BRILLOUIN|    80           0.00195       -0.42188       -0.01562        0.00000
 BRILLOUIN|    81           0.00195       -0.42188        0.01562        0.00000
 BRILLOUIN|    82           0.00195       -0.42188        0.04688        0.00000
 BRILLOUIN|    83           0.00195       -0.42188        0.07812        0.00000
 BRILLOUIN|    84           0.00195       -0.42188        0.10938        0.00000
 BRILLOUIN|    85           0.00195       -0.42188        0.14062        0.00000
 BRILLOUIN|    86           0.00195       -0.42188        0.17188        0.00000
 BRILLOUIN|    87           0.00195       -0.42188        0.20312        0.00000
 BRILLOUIN|    88           0.00195       -0.42188        0.23438        0.00000
 BRILLOUIN|    89           0.00195       -0.42188        0.26562        0.00000
 BRILLOUIN|    90           0.00195       -0.42188        0.29688        0.00000
 BRILLOUIN|    91           0.00195       -0.42188        0.32812        0.00000
 BRILLOUIN|    92           0.00195       -0.42188        0.35938        0.00000
 BRILLOUIN|    93           0.00195       -0.42188        0.39062        0.00000
 BRILLOUIN|    94           0.00195       -0.42188        0.42188        0.00000
 BRILLOUIN|    95           0.00195       -0.42188        0.45312        0.00000
 BRILLOUIN|    96           0.00195       -0.42188        0.48438        0.00000
 BRILLOUIN|    97           0.00195       -0.39062       -0.48438        0.00000
 BRILLOUIN|    98           0.00195       -0.39062       -0.45312        0.00000
 BRILLOUIN|    99           0.00195       -0.39062       -0.42188        0.00000
 BRILLOUIN|   100           0.00195       -0.39062       -0.39062        0.00000
 BRILLOUIN|   101           0.00195       -0.39062       -0.35938        0.00000
 BRILLOUIN|   102           0.00195       -0.39062       -0.32812        0.00000
 BRILLOUIN|   103           0.00195       -0.39062       -0.29688        0.00000
 BRILLOUIN|   104           0.00195       -0.39062       -0.26562        0.00000
 BRILLOUIN|   105           0.00195       -0.39062       -0.23438        0.00000
 BRILLOUIN|   106           0.00195       -0.39062       -0.20312        0.00000
 BRILLOUIN|   107           0.00195       -0.39062       -0.17188        0.00000
 BRILLOUIN|   108           0.00195       -0.39062       -0.14062        0.00000
 BRILLOUIN|   109           0.00195       -0.39062       -0.10938        0.00000
 BRILLOUIN|   110           0.00195       -0.39062       -0.07812        0.00000
 BRILLOUIN|   111           0.00195       -0.39062       -0.04688        0.00000
 BRILLOUIN|   112           0.00195       -0.39062       -0.01562        0.00000
 BRILLOUIN|   113           0.00195       -0.39062        0.01562        0.00000
 BRILLOUIN|   114           0.00195       -0.39062        0.04688        0.00000
 BRILLOUIN|   115           0.00195       -0.39062        0.07812        0.00000
 BRILLOUIN|   116           0.00195       -0.39062        0.10938        0.00000
 BRILLOUIN|   117           0.00195       -0.39062        0.14062        0.00000
 BRILLOUIN|   118           0.00195       -0.39062        0.17188        0.00000
 BRILLOUIN|   119           0.00195       -0.39062        0.20312        0.00000
 BRILLOUIN|   120           0.00195       -0.39062        0.23438        0.00000
 BRILLOUIN|   121           0.00195       -0.39062        0.26562        0.00000
 BRILLOUIN|   122           0.00195       -0.39062        0.29688        0.00000
 BRILLOUIN|   123           0.00195       -0.39062        0.32812        0.00000
 BRILLOUIN|   124           0.00195       -0.39062        0.35938        0.00000
 BRILLOUIN|   125           0.00195       -0.39062        0.39062        0.00000
 BRILLOUIN|   126           0.00195       -0.39062        0.42188        0.00000
 BRILLOUIN|   127           0.00195       -0.39062        0.45312        0.00000
 BRILLOUIN|   128           0.00195       -0.39062        0.48438        0.00000
 BRILLOUIN|   129           0.00195       -0.35938       -0.48438        0.00000
 BRILLOUIN|   130           0.00195       -0.35938       -0.45312        0.00000
 BRILLOUIN|   131           0.00195       -0.35938       -0.42188        0.00000
 BRILLOUIN|   132           0.00195       -0.35938       -0.39062        0.00000
 BRILLOUIN|   133           0.00195       -0.35938       -0.35938        0.00000
 BRILLOUIN|   134           0.00195       -0.35938       -0.32812        0.00000
 BRILLOUIN|   135           0.00195       -0.35938       -0.29688        0.00000
 BRILLOUIN|   136           0.00195       -0.35938       -0.26562        0.00000
 BRILLOUIN|   137           0.00195       -0.35938       -0.23438        0.00000
 BRILLOUIN|   138           0.00195       -0.35938       -0.20312        0.00000
 BRILLOUIN|   139           0.00195       -0.35938       -0.17188        0.00000
 BRILLOUIN|   140           0.00195       -0.35938       -0.14062        0.00000
 BRILLOUIN|   141           0.00195       -0.35938       -0.10938        0.00000
 BRILLOUIN|   142           0.00195       -0.35938       -0.07812        0.00000
 BRILLOUIN|   143           0.00195       -0.35938       -0.04688        0.00000
 BRILLOUIN|   144           0.00195       -0.35938       -0.01562        0.00000
 BRILLOUIN|   145           0.00195       -0.35938        0.01562        0.00000
 BRILLOUIN|   146           0.00195       -0.35938        0.04688        0.00000
 BRILLOUIN|   147           0.00195       -0.35938        0.07812        0.00000
 BRILLOUIN|   148           0.00195       -0.35938        0.10938        0.00000
 BRILLOUIN|   149           0.00195       -0.35938        0.14062        0.00000
 BRILLOUIN|   150           0.00195       -0.35938        0.17188        0.00000
 BRILLOUIN|   151           0.00195       -0.35938        0.20312        0.00000
 BRILLOUIN|   152           0.00195       -0.35938        0.23438        0.00000
 BRILLOUIN|   153           0.00195       -0.35938        0.26562        0.00000
 BRILLOUIN|   154           0.00195       -0.35938        0.29688        0.00000
 BRILLOUIN|   155           0.00195       -0.35938        0.32812        0.00000
 BRILLOUIN|   156           0.00195       -0.35938        0.35938        0.00000
 BRILLOUIN|   157           0.00195       -0.35938        0.39062        0.00000
 BRILLOUIN|   158           0.00195       -0.35938        0.42188        0.00000
 BRILLOUIN|   159           0.00195       -0.35938        0.45312        0.00000
 BRILLOUIN|   160           0.00195       -0.35938        0.48438        0.00000
 BRILLOUIN|   161           0.00195       -0.32812       -0.48438        0.00000
 BRILLOUIN|   162           0.00195       -0.32812       -0.45312        0.00000
 BRILLOUIN|   163           0.00195       -0.32812       -0.42188        0.00000
 BRILLOUIN|   164           0.00195       -0.32812       -0.39062        0.00000
 BRILLOUIN|   165           0.00195       -0.32812       -0.35938        0.00000
 BRILLOUIN|   166           0.00195       -0.32812       -0.32812        0.00000
 BRILLOUIN|   167           0.00195       -0.32812       -0.29688        0.00000
 BRILLOUIN|   168           0.00195       -0.32812       -0.26562        0.00000
 BRILLOUIN|   169           0.00195       -0.32812       -0.23438        0.00000
 BRILLOUIN|   170           0.00195       -0.32812       -0.20312        0.00000
 BRILLOUIN|   171           0.00195       -0.32812       -0.17188        0.00000
 BRILLOUIN|   172           0.00195       -0.32812       -0.14062        0.00000
 BRILLOUIN|   173           0.00195       -0.32812       -0.10938        0.00000
 BRILLOUIN|   174           0.00195       -0.32812       -0.07812        0.00000
 BRILLOUIN|   175           0.00195       -0.32812       -0.04688        0.00000
 BRILLOUIN|   176           0.00195       -0.32812       -0.01562        0.00000
 BRILLOUIN|   177           0.00195       -0.32812        0.01562        0.00000
 BRILLOUIN|   178           0.00195       -0.32812        0.04688        0.00000
 BRILLOUIN|   179           0.00195       -0.32812        0.07812        0.00000
 BRILLOUIN|   180           0.00195       -0.32812        0.10938        0.00000
 BRILLOUIN|   181           0.00195       -0.32812        0.14062        0.00000
 BRILLOUIN|   182           0.00195       -0.32812        0.17188        0.00000
 BRILLOUIN|   183           0.00195       -0.32812        0.20312        0.00000
 BRILLOUIN|   184           0.00195       -0.32812        0.23438        0.00000
 BRILLOUIN|   185           0.00195       -0.32812        0.26562        0.00000
 BRILLOUIN|   186           0.00195       -0.32812        0.29688        0.00000
 BRILLOUIN|   187           0.00195       -0.32812        0.32812        0.00000
 BRILLOUIN|   188           0.00195       -0.32812        0.35938        0.00000
 BRILLOUIN|   189           0.00195       -0.32812        0.39062        0.00000
 BRILLOUIN|   190           0.00195       -0.32812        0.42188        0.00000
 BRILLOUIN|   191           0.00195       -0.32812        0.45312        0.00000
 BRILLOUIN|   192           0.00195       -0.32812        0.48438        0.00000
 BRILLOUIN|   193           0.00195       -0.29688       -0.48438        0.00000
 BRILLOUIN|   194           0.00195       -0.29688       -0.45312        0.00000
 BRILLOUIN|   195           0.00195       -0.29688       -0.42188        0.00000
 BRILLOUIN|   196           0.00195       -0.29688       -0.39062        0.00000
 BRILLOUIN|   197           0.00195       -0.29688       -0.35938        0.00000
 BRILLOUIN|   198           0.00195       -0.29688       -0.32812        0.00000
 BRILLOUIN|   199           0.00195       -0.29688       -0.29688        0.00000
 BRILLOUIN|   200           0.00195       -0.29688       -0.26562        0.00000
 BRILLOUIN|   201           0.00195       -0.29688       -0.23438        0.00000
 BRILLOUIN|   202           0.00195       -0.29688       -0.20312        0.00000
 BRILLOUIN|   203           0.00195       -0.29688       -0.17188        0.00000
 BRILLOUIN|   204           0.00195       -0.29688       -0.14062        0.00000
 BRILLOUIN|   205           0.00195       -0.29688       -0.10938        0.00000
 BRILLOUIN|   206           0.00195       -0.29688       -0.07812        0.00000
 BRILLOUIN|   207           0.00195       -0.29688       -0.04688        0.00000
 BRILLOUIN|   208           0.00195       -0.29688       -0.01562        0.00000
 BRILLOUIN|   209           0.00195       -0.29688        0.01562        0.00000
 BRILLOUIN|   210           0.00195       -0.29688        0.04688        0.00000
 BRILLOUIN|   211           0.00195       -0.29688        0.07812        0.00000
 BRILLOUIN|   212           0.00195       -0.29688        0.10938        0.00000
 BRILLOUIN|   213           0.00195       -0.29688        0.14062        0.00000
 BRILLOUIN|   214           0.00195       -0.29688        0.17188        0.00000
 BRILLOUIN|   215           0.00195       -0.29688        0.20312        0.00000
 BRILLOUIN|   216           0.00195       -0.29688        0.23438        0.00000
 BRILLOUIN|   217           0.00195       -0.29688        0.26562        0.00000
 BRILLOUIN|   218           0.00195       -0.29688        0.29688        0.00000
 BRILLOUIN|   219           0.00195       -0.29688        0.32812        0.00000
 BRILLOUIN|   220           0.00195       -0.29688        0.35938        0.00000
 BRILLOUIN|   221           0.00195       -0.29688        0.39062        0.00000
 BRILLOUIN|   222           0.00195       -0.29688        0.42188        0.00000
 BRILLOUIN|   223           0.00195       -0.29688        0.45312        0.00000
 BRILLOUIN|   224           0.00195       -0.29688        0.48438        0.00000
 BRILLOUIN|   225           0.00195       -0.26562       -0.48438        0.00000
 BRILLOUIN|   226           0.00195       -0.26562       -0.45312        0.00000
 BRILLOUIN|   227           0.00195       -0.26562       -0.42188        0.00000
 BRILLOUIN|   228           0.00195       -0.26562       -0.39062        0.00000
 BRILLOUIN|   229           0.00195       -0.26562       -0.35938        0.00000
 BRILLOUIN|   230           0.00195       -0.26562       -0.32812        0.00000
 BRILLOUIN|   231           0.00195       -0.26562       -0.29688        0.00000
 BRILLOUIN|   232           0.00195       -0.26562       -0.26562        0.00000
 BRILLOUIN|   233           0.00195       -0.26562       -0.23438        0.00000
 BRILLOUIN|   234           0.00195       -0.26562       -0.20312        0.00000
 BRILLOUIN|   235           0.00195       -0.26562       -0.17188        0.00000
 BRILLOUIN|   236           0.00195       -0.26562       -0.14062        0.00000
 BRILLOUIN|   237           0.00195       -0.26562       -0.10938        0.00000
 BRILLOUIN|   238           0.00195       -0.26562       -0.07812        0.00000
 BRILLOUIN|   239           0.00195       -0.26562       -0.04688        0.00000
 BRILLOUIN|   240           0.00195       -0.26562       -0.01562        0.00000
 BRILLOUIN|   241           0.00195       -0.26562        0.01562        0.00000
 BRILLOUIN|   242           0.00195       -0.26562        0.04688        0.00000
 BRILLOUIN|   243           0.00195       -0.26562        0.07812        0.00000
 BRILLOUIN|   244           0.00195       -0.26562        0.10938        0.00000
 BRILLOUIN|   245           0.00195       -0.26562        0.14062        0.00000
 BRILLOUIN|   246           0.00195       -0.26562        0.17188        0.00000
 BRILLOUIN|   247           0.00195       -0.26562        0.20312        0.00000
 BRILLOUIN|   248           0.00195       -0.26562        0.23438        0.00000
 BRILLOUIN|   249           0.00195       -0.26562        0.26562        0.00000
 BRILLOUIN|   250           0.00195       -0.26562        0.29688        0.00000
 BRILLOUIN|   251           0.00195       -0.26562        0.32812        0.00000
 BRILLOUIN|   252           0.00195       -0.26562        0.35938        0.00000
 BRILLOUIN|   253           0.00195       -0.26562        0.39062        0.00000
 BRILLOUIN|   254           0.00195       -0.26562        0.42188        0.00000
 BRILLOUIN|   255           0.00195       -0.26562        0.45312        0.00000
 BRILLOUIN|   256           0.00195       -0.26562        0.48438        0.00000
 BRILLOUIN|   257           0.00195       -0.23438       -0.48438        0.00000
 BRILLOUIN|   258           0.00195       -0.23438       -0.45312        0.00000
 BRILLOUIN|   259           0.00195       -0.23438       -0.42188        0.00000
 BRILLOUIN|   260           0.00195       -0.23438       -0.39062        0.00000
 BRILLOUIN|   261           0.00195       -0.23438       -0.35938        0.00000
 BRILLOUIN|   262           0.00195       -0.23438       -0.32812        0.00000
 BRILLOUIN|   263           0.00195       -0.23438       -0.29688        0.00000
 BRILLOUIN|   264           0.00195       -0.23438       -0.26562        0.00000
 BRILLOUIN|   265           0.00195       -0.23438       -0.23438        0.00000
 BRILLOUIN|   266           0.00195       -0.23438       -0.20312        0.00000
 BRILLOUIN|   267           0.00195       -0.23438       -0.17188        0.00000
 BRILLOUIN|   268           0.00195       -0.23438       -0.14062        0.00000
 BRILLOUIN|   269           0.00195       -0.23438       -0.10938        0.00000
 BRILLOUIN|   270           0.00195       -0.23438       -0.07812        0.00000
 BRILLOUIN|   271           0.00195       -0.23438       -0.04688        0.00000
 BRILLOUIN|   272           0.00195       -0.23438       -0.01562        0.00000
 BRILLOUIN|   273           0.00195       -0.23438        0.01562        0.00000
 BRILLOUIN|   274           0.00195       -0.23438        0.04688        0.00000
 BRILLOUIN|   275           0.00195       -0.23438        0.07812        0.00000
 BRILLOUIN|   276           0.00195       -0.23438        0.10938        0.00000
 BRILLOUIN|   277           0.00195       -0.23438        0.14062        0.00000
 BRILLOUIN|   278           0.00195       -0.23438        0.17188        0.00000
 BRILLOUIN|   279           0.00195       -0.23438        0.20312        0.00000
 BRILLOUIN|   280           0.00195       -0.23438        0.23438        0.00000
 BRILLOUIN|   281           0.00195       -0.23438        0.26562        0.00000
 BRILLOUIN|   282           0.00195       -0.23438        0.29688        0.00000
 BRILLOUIN|   283           0.00195       -0.23438        0.32812        0.00000
 BRILLOUIN|   284           0.00195       -0.23438        0.35938        0.00000
 BRILLOUIN|   285           0.00195       -0.23438        0.39062        0.00000
 BRILLOUIN|   286           0.00195       -0.23438        0.42188        0.00000
 BRILLOUIN|   287           0.00195       -0.23438        0.45312        0.00000
 BRILLOUIN|   288           0.00195       -0.23438        0.48438        0.00000
 BRILLOUIN|   289           0.00195       -0.20312       -0.48438        0.00000
 BRILLOUIN|   290           0.00195       -0.20312       -0.45312        0.00000
 BRILLOUIN|   291           0.00195       -0.20312       -0.42188        0.00000
 BRILLOUIN|   292           0.00195       -0.20312       -0.39062        0.00000
 BRILLOUIN|   293           0.00195       -0.20312       -0.35938        0.00000
 BRILLOUIN|   294           0.00195       -0.20312       -0.32812        0.00000
 BRILLOUIN|   295           0.00195       -0.20312       -0.29688        0.00000
 BRILLOUIN|   296           0.00195       -0.20312       -0.26562        0.00000
 BRILLOUIN|   297           0.00195       -0.20312       -0.23438        0.00000
 BRILLOUIN|   298           0.00195       -0.20312       -0.20312        0.00000
 BRILLOUIN|   299           0.00195       -0.20312       -0.17188        0.00000
 BRILLOUIN|   300           0.00195       -0.20312       -0.14062        0.00000
 BRILLOUIN|   301           0.00195       -0.20312       -0.10938        0.00000
 BRILLOUIN|   302           0.00195       -0.20312       -0.07812        0.00000
 BRILLOUIN|   303           0.00195       -0.20312       -0.04688        0.00000
 BRILLOUIN|   304           0.00195       -0.20312       -0.01562        0.00000
 BRILLOUIN|   305           0.00195       -0.20312        0.01562        0.00000
 BRILLOUIN|   306           0.00195       -0.20312        0.04688        0.00000
 BRILLOUIN|   307           0.00195       -0.20312        0.07812        0.00000
 BRILLOUIN|   308           0.00195       -0.20312        0.10938        0.00000
 BRILLOUIN|   309           0.00195       -0.20312        0.14062        0.00000
 BRILLOUIN|   310           0.00195       -0.20312        0.17188        0.00000
 BRILLOUIN|   311           0.00195       -0.20312        0.20312        0.00000
 BRILLOUIN|   312           0.00195       -0.20312        0.23438        0.00000
 BRILLOUIN|   313           0.00195       -0.20312        0.26562        0.00000
 BRILLOUIN|   314           0.00195       -0.20312        0.29688        0.00000
 BRILLOUIN|   315           0.00195       -0.20312        0.32812        0.00000
 BRILLOUIN|   316           0.00195       -0.20312        0.35938        0.00000
 BRILLOUIN|   317           0.00195       -0.20312        0.39062        0.00000
 BRILLOUIN|   318           0.00195       -0.20312        0.42188        0.00000
 BRILLOUIN|   319           0.00195       -0.20312        0.45312        0.00000
 BRILLOUIN|   320           0.00195       -0.20312        0.48438        0.00000
 BRILLOUIN|   321           0.00195       -0.17188       -0.48438        0.00000
 BRILLOUIN|   322           0.00195       -0.17188       -0.45312        0.00000
 BRILLOUIN|   323           0.00195       -0.17188       -0.42188        0.00000
 BRILLOUIN|   324           0.00195       -0.17188       -0.39062        0.00000
 BRILLOUIN|   325           0.00195       -0.17188       -0.35938        0.00000
 BRILLOUIN|   326           0.00195       -0.17188       -0.32812        0.00000
 BRILLOUIN|   327           0.00195       -0.17188       -0.29688        0.00000
 BRILLOUIN|   328           0.00195       -0.17188       -0.26562        0.00000
 BRILLOUIN|   329           0.00195       -0.17188       -0.23438        0.00000
 BRILLOUIN|   330           0.00195       -0.17188       -0.20312        0.00000
 BRILLOUIN|   331           0.00195       -0.17188       -0.17188        0.00000
 BRILLOUIN|   332           0.00195       -0.17188       -0.14062        0.00000
 BRILLOUIN|   333           0.00195       -0.17188       -0.10938        0.00000
 BRILLOUIN|   334           0.00195       -0.17188       -0.07812        0.00000
 BRILLOUIN|   335           0.00195       -0.17188       -0.04688        0.00000
 BRILLOUIN|   336           0.00195       -0.17188       -0.01562        0.00000
 BRILLOUIN|   337           0.00195       -0.17188        0.01562        0.00000
 BRILLOUIN|   338           0.00195       -0.17188        0.04688        0.00000
 BRILLOUIN|   339           0.00195       -0.17188        0.07812        0.00000
 BRILLOUIN|   340           0.00195       -0.17188        0.10938        0.00000
 BRILLOUIN|   341           0.00195       -0.17188        0.14062        0.00000
 BRILLOUIN|   342           0.00195       -0.17188        0.17188        0.00000
 BRILLOUIN|   343           0.00195       -0.17188        0.20312        0.00000
 BRILLOUIN|   344           0.00195       -0.17188        0.23438        0.00000
 BRILLOUIN|   345           0.00195       -0.17188        0.26562        0.00000
 BRILLOUIN|   346           0.00195       -0.17188        0.29688        0.00000
 BRILLOUIN|   347           0.00195       -0.17188        0.32812        0.00000
 BRILLOUIN|   348           0.00195       -0.17188        0.35938        0.00000
 BRILLOUIN|   349           0.00195       -0.17188        0.39062        0.00000
 BRILLOUIN|   350           0.00195       -0.17188        0.42188        0.00000
 BRILLOUIN|   351           0.00195       -0.17188        0.45312        0.00000
 BRILLOUIN|   352           0.00195       -0.17188        0.48438        0.00000
 BRILLOUIN|   353           0.00195       -0.14062       -0.48438        0.00000
 BRILLOUIN|   354           0.00195       -0.14062       -0.45312        0.00000
 BRILLOUIN|   355           0.00195       -0.14062       -0.42188        0.00000
 BRILLOUIN|   356           0.00195       -0.14062       -0.39062        0.00000
 BRILLOUIN|   357           0.00195       -0.14062       -0.35938        0.00000
 BRILLOUIN|   358           0.00195       -0.14062       -0.32812        0.00000
 BRILLOUIN|   359           0.00195       -0.14062       -0.29688        0.00000
 BRILLOUIN|   360           0.00195       -0.14062       -0.26562        0.00000
 BRILLOUIN|   361           0.00195       -0.14062       -0.23438        0.00000
 BRILLOUIN|   362           0.00195       -0.14062       -0.20312        0.00000
 BRILLOUIN|   363           0.00195       -0.14062       -0.17188        0.00000
 BRILLOUIN|   364           0.00195       -0.14062       -0.14062        0.00000
 BRILLOUIN|   365           0.00195       -0.14062       -0.10938        0.00000
 BRILLOUIN|   366           0.00195       -0.14062       -0.07812        0.00000
 BRILLOUIN|   367           0.00195       -0.14062       -0.04688        0.00000
 BRILLOUIN|   368           0.00195       -0.14062       -0.01562        0.00000
 BRILLOUIN|   369           0.00195       -0.14062        0.01562        0.00000
 BRILLOUIN|   370           0.00195       -0.14062        0.04688        0.00000
 BRILLOUIN|   371           0.00195       -0.14062        0.07812        0.00000
 BRILLOUIN|   372           0.00195       -0.14062        0.10938        0.00000
 BRILLOUIN|   373           0.00195       -0.14062        0.14062        0.00000
 BRILLOUIN|   374           0.00195       -0.14062        0.17188        0.00000
 BRILLOUIN|   375           0.00195       -0.14062        0.20312        0.00000
 BRILLOUIN|   376           0.00195       -0.14062        0.23438        0.00000
 BRILLOUIN|   377           0.00195       -0.14062        0.26562        0.00000
 BRILLOUIN|   378           0.00195       -0.14062        0.29688        0.00000
 BRILLOUIN|   379           0.00195       -0.14062        0.32812        0.00000
 BRILLOUIN|   380           0.00195       -0.14062        0.35938        0.00000
 BRILLOUIN|   381           0.00195       -0.14062        0.39062        0.00000
 BRILLOUIN|   382           0.00195       -0.14062        0.42188        0.00000
 BRILLOUIN|   383           0.00195       -0.14062        0.45312        0.00000
 BRILLOUIN|   384           0.00195       -0.14062        0.48438        0.00000
 BRILLOUIN|   385           0.00195       -0.10938       -0.48438        0.00000
 BRILLOUIN|   386           0.00195       -0.10938       -0.45312        0.00000
 BRILLOUIN|   387           0.00195       -0.10938       -0.42188        0.00000
 BRILLOUIN|   388           0.00195       -0.10938       -0.39062        0.00000
 BRILLOUIN|   389           0.00195       -0.10938       -0.35938        0.00000
 BRILLOUIN|   390           0.00195       -0.10938       -0.32812        0.00000
 BRILLOUIN|   391           0.00195       -0.10938       -0.29688        0.00000
 BRILLOUIN|   392           0.00195       -0.10938       -0.26562        0.00000
 BRILLOUIN|   393           0.00195       -0.10938       -0.23438        0.00000
 BRILLOUIN|   394           0.00195       -0.10938       -0.20312        0.00000
 BRILLOUIN|   395           0.00195       -0.10938       -0.17188        0.00000
 BRILLOUIN|   396           0.00195       -0.10938       -0.14062        0.00000
 BRILLOUIN|   397           0.00195       -0.10938       -0.10938        0.00000
 BRILLOUIN|   398           0.00195       -0.10938       -0.07812        0.00000
 BRILLOUIN|   399           0.00195       -0.10938       -0.04688        0.00000
 BRILLOUIN|   400           0.00195       -0.10938       -0.01562        0.00000
 BRILLOUIN|   401           0.00195       -0.10938        0.01562        0.00000
 BRILLOUIN|   402           0.00195       -0.10938        0.04688        0.00000
 BRILLOUIN|   403           0.00195       -0.10938        0.07812        0.00000
 BRILLOUIN|   404           0.00195       -0.10938        0.10938        0.00000
 BRILLOUIN|   405           0.00195       -0.10938        0.14062        0.00000
 BRILLOUIN|   406           0.00195       -0.10938        0.17188        0.00000
 BRILLOUIN|   407           0.00195       -0.10938        0.20312        0.00000
 BRILLOUIN|   408           0.00195       -0.10938        0.23438        0.00000
 BRILLOUIN|   409           0.00195       -0.10938        0.26562        0.00000
 BRILLOUIN|   410           0.00195       -0.10938        0.29688        0.00000
 BRILLOUIN|   411           0.00195       -0.10938        0.32812        0.00000
 BRILLOUIN|   412           0.00195       -0.10938        0.35938        0.00000
 BRILLOUIN|   413           0.00195       -0.10938        0.39062        0.00000
 BRILLOUIN|   414           0.00195       -0.10938        0.42188        0.00000
 BRILLOUIN|   415           0.00195       -0.10938        0.45312        0.00000
 BRILLOUIN|   416           0.00195       -0.10938        0.48438        0.00000
 BRILLOUIN|   417           0.00195       -0.07812       -0.48438        0.00000
 BRILLOUIN|   418           0.00195       -0.07812       -0.45312        0.00000
 BRILLOUIN|   419           0.00195       -0.07812       -0.42188        0.00000
 BRILLOUIN|   420           0.00195       -0.07812       -0.39062        0.00000
 BRILLOUIN|   421           0.00195       -0.07812       -0.35938        0.00000
 BRILLOUIN|   422           0.00195       -0.07812       -0.32812        0.00000
 BRILLOUIN|   423           0.00195       -0.07812       -0.29688        0.00000
 BRILLOUIN|   424           0.00195       -0.07812       -0.26562        0.00000
 BRILLOUIN|   425           0.00195       -0.07812       -0.23438        0.00000
 BRILLOUIN|   426           0.00195       -0.07812       -0.20312        0.00000
 BRILLOUIN|   427           0.00195       -0.07812       -0.17188        0.00000
 BRILLOUIN|   428           0.00195       -0.07812       -0.14062        0.00000
 BRILLOUIN|   429           0.00195       -0.07812       -0.10938        0.00000
 BRILLOUIN|   430           0.00195       -0.07812       -0.07812        0.00000
 BRILLOUIN|   431           0.00195       -0.07812       -0.04688        0.00000
 BRILLOUIN|   432           0.00195       -0.07812       -0.01562        0.00000
 BRILLOUIN|   433           0.00195       -0.07812        0.01562        0.00000
 BRILLOUIN|   434           0.00195       -0.07812        0.04688        0.00000
 BRILLOUIN|   435           0.00195       -0.07812        0.07812        0.00000
 BRILLOUIN|   436           0.00195       -0.07812        0.10938        0.00000
 BRILLOUIN|   437           0.00195       -0.07812        0.14062        0.00000
 BRILLOUIN|   438           0.00195       -0.07812        0.17188        0.00000
 BRILLOUIN|   439           0.00195       -0.07812        0.20312        0.00000
 BRILLOUIN|   440           0.00195       -0.07812        0.23438        0.00000
 BRILLOUIN|   441           0.00195       -0.07812        0.26562        0.00000
 BRILLOUIN|   442           0.00195       -0.07812        0.29688        0.00000
 BRILLOUIN|   443           0.00195       -0.07812        0.32812        0.00000
 BRILLOUIN|   444           0.00195       -0.07812        0.35938        0.00000
 BRILLOUIN|   445           0.00195       -0.07812        0.39062        0.00000
 BRILLOUIN|   446           0.00195       -0.07812        0.42188        0.00000
 BRILLOUIN|   447           0.00195       -0.07812        0.45312        0.00000
 BRILLOUIN|   448           0.00195       -0.07812        0.48438        0.00000
 BRILLOUIN|   449           0.00195       -0.04688       -0.48438        0.00000
 BRILLOUIN|   450           0.00195       -0.04688       -0.45312        0.00000
 BRILLOUIN|   451           0.00195       -0.04688       -0.42188        0.00000
 BRILLOUIN|   452           0.00195       -0.04688       -0.39062        0.00000
 BRILLOUIN|   453           0.00195       -0.04688       -0.35938        0.00000
 BRILLOUIN|   454           0.00195       -0.04688       -0.32812        0.00000
 BRILLOUIN|   455           0.00195       -0.04688       -0.29688        0.00000
 BRILLOUIN|   456           0.00195       -0.04688       -0.26562        0.00000
 BRILLOUIN|   457           0.00195       -0.04688       -0.23438        0.00000
 BRILLOUIN|   458           0.00195       -0.04688       -0.20312        0.00000
 BRILLOUIN|   459           0.00195       -0.04688       -0.17188        0.00000
 BRILLOUIN|   460           0.00195       -0.04688       -0.14062        0.00000
 BRILLOUIN|   461           0.00195       -0.04688       -0.10938        0.00000
 BRILLOUIN|   462           0.00195       -0.04688       -0.07812        0.00000
 BRILLOUIN|   463           0.00195       -0.04688       -0.04688        0.00000
 BRILLOUIN|   464           0.00195       -0.04688       -0.01562        0.00000
 BRILLOUIN|   465           0.00195       -0.04688        0.01562        0.00000
 BRILLOUIN|   466           0.00195       -0.04688        0.04688        0.00000
 BRILLOUIN|   467           0.00195       -0.04688        0.07812        0.00000
 BRILLOUIN|   468           0.00195       -0.04688        0.10938        0.00000
 BRILLOUIN|   469           0.00195       -0.04688        0.14062        0.00000
 BRILLOUIN|   470           0.00195       -0.04688        0.17188        0.00000
 BRILLOUIN|   471           0.00195       -0.04688        0.20312        0.00000
 BRILLOUIN|   472           0.00195       -0.04688        0.23438        0.00000
 BRILLOUIN|   473           0.00195       -0.04688        0.26562        0.00000
 BRILLOUIN|   474           0.00195       -0.04688        0.29688        0.00000
 BRILLOUIN|   475           0.00195       -0.04688        0.32812        0.00000
 BRILLOUIN|   476           0.00195       -0.04688        0.35938        0.00000
 BRILLOUIN|   477           0.00195       -0.04688        0.39062        0.00000
 BRILLOUIN|   478           0.00195       -0.04688        0.42188        0.00000
 BRILLOUIN|   479           0.00195       -0.04688        0.45312        0.00000
 BRILLOUIN|   480           0.00195       -0.04688        0.48438        0.00000
 BRILLOUIN|   481           0.00195       -0.01562       -0.48438        0.00000
 BRILLOUIN|   482           0.00195       -0.01562       -0.45312        0.00000
 BRILLOUIN|   483           0.00195       -0.01562       -0.42188        0.00000
 BRILLOUIN|   484           0.00195       -0.01562       -0.39062        0.00000
 BRILLOUIN|   485           0.00195       -0.01562       -0.35938        0.00000
 BRILLOUIN|   486           0.00195       -0.01562       -0.32812        0.00000
 BRILLOUIN|   487           0.00195       -0.01562       -0.29688        0.00000
 BRILLOUIN|   488           0.00195       -0.01562       -0.26562        0.00000
 BRILLOUIN|   489           0.00195       -0.01562       -0.23438        0.00000
 BRILLOUIN|   490           0.00195       -0.01562       -0.20312        0.00000
 BRILLOUIN|   491           0.00195       -0.01562       -0.17188        0.00000
 BRILLOUIN|   492           0.00195       -0.01562       -0.14062        0.00000
 BRILLOUIN|   493           0.00195       -0.01562       -0.10938        0.00000
 BRILLOUIN|   494           0.00195       -0.01562       -0.07812        0.00000
 BRILLOUIN|   495           0.00195       -0.01562       -0.04688        0.00000
 BRILLOUIN|   496           0.00195       -0.01562       -0.01562        0.00000
 BRILLOUIN|   497           0.00195       -0.01562        0.01562        0.00000
 BRILLOUIN|   498           0.00195       -0.01562        0.04688        0.00000
 BRILLOUIN|   499           0.00195       -0.01562        0.07812        0.00000
 BRILLOUIN|   500           0.00195       -0.01562        0.10938        0.00000
 BRILLOUIN|   501           0.00195       -0.01562        0.14062        0.00000
 BRILLOUIN|   502           0.00195       -0.01562        0.17188        0.00000
 BRILLOUIN|   503           0.00195       -0.01562        0.20312        0.00000
 BRILLOUIN|   504           0.00195       -0.01562        0.23438        0.00000
 BRILLOUIN|   505           0.00195       -0.01562        0.26562        0.00000
 BRILLOUIN|   506           0.00195       -0.01562        0.29688        0.00000
 BRILLOUIN|   507           0.00195       -0.01562        0.32812        0.00000
 BRILLOUIN|   508           0.00195       -0.01562        0.35938        0.00000
 BRILLOUIN|   509           0.00195       -0.01562        0.39062        0.00000
 BRILLOUIN|   510           0.00195       -0.01562        0.42188        0.00000
 BRILLOUIN|   511           0.00195       -0.01562        0.45312        0.00000
 BRILLOUIN|   512           0.00195       -0.01562        0.48438        0.00000
 *******************************************************************************

 *******************************************************************************
 *******************************************************************************
 **                                                                           **
 **     #####                         ##              ##                      **
 **    ##   ##            ##          ##              ##                      **
 **   ##     ##                       ##            ######                    **
 **   ##     ##  ##   ##  ##   #####  ##  ##   ####   ##    #####    #####    **
 **   ##     ##  ##   ##  ##  ##      ## ##   ##      ##   ##   ##  ##   ##   **
 **   ##  ## ##  ##   ##  ##  ##      ####     ###    ##   ######   ######    **
 **    ##  ###   ##   ##  ##  ##      ## ##      ##   ##   ##       ##        **
 **     #######   #####   ##   #####  ##  ##  ####    ##    #####   ##        **
 **           ##                                                    ##        **
 **                                                                           **
 **                                                ... make the atoms dance   **
 **                                                                           **
 **            Copyright (C) by CP2K developers group (2000-2025)             **
 **                      J. Chem. Phys. 152, 194103 (2020)                    **
 **                                                                           **
 *******************************************************************************

 DFT| Spin restricted Kohn-Sham (RKS) calculation                            RKS
 DFT| Multiplicity                                                             1
 DFT| Number of spin states                                                    1
 DFT| Charge                                                                   0
 DFT| Self-interaction correction (SIC)                                       NO
 DFT| Cutoffs: density                                              1.000000E-10
 DFT|          gradient                                             1.000000E-10
 DFT|          tau                                                  1.000000E-10
 DFT|          cutoff_smoothing_range                               0.000000E+00
 DFT| XC density smoothing                                                  NONE
 DFT| XC derivatives                                                          PW

 FUNCTIONAL| PBE:
 FUNCTIONAL| J.P.Perdew, K.Burke, M.Ernzerhof, Phys. Rev. Letter, vol. 77, n 18,
 FUNCTIONAL|  pp. 3865-3868, (1996) {spin unpolarized}                          


 QS| Method:                                                                GAPW
 QS| Density plane wave grid type                        NON-SPHERICAL FULLSPACE
 QS| Number of grid levels:                                                    4
 QS| Density cutoff [a.u.]:                                                250.0
 QS| Multi grid cutoff [a.u.]: 1) grid level                               250.0
 QS|                           2) grid level                                83.3
 QS|                           3) grid level                                27.8
 QS|                           4) grid level                                 9.3
 QS| Grid level progression factor:                                          3.0
 QS| Relative density cutoff [a.u.]:                                        50.0
 QS| Interaction thresholds: eps_pgf_orb:                                1.0E-12
 QS|                         eps_filter_matrix:                          0.0E+00
 QS|                         eps_core_charge:                            1.0E-14
 QS|                         eps_rho_gspace:                             1.0E-12
 QS|                         eps_rho_rspace:                             1.0E-12
 QS|                         eps_gvg_rspace:                             1.0E-06
 QS|                         eps_ppl:                                    1.0E-02
 QS|                         eps_ppnl:                                   1.0E-08
 QS| GAPW|      One center basis from orbital basis primitives
 QS| GAPW|                   eps_fit:                                    1.0E-04
 QS| GAPW|                   eps_iso:                                    1.0E-12
 QS| GAPW|                   eps_svd:                                    1.0E-08
 QS| GAPW|                   eps_cpc:                                    1.0E-12
 QS| GAPW|   atom-r-grid: quadrature:                                     GC_LOG
 QS| GAPW|      atom-s-grid:  max l :                                          6
 QS| GAPW|      max_l_rho0 :                                                   2
 QS| GAPW|      At least one kind is NOT PAW, i.e. it has only soft AO 
 QS| GAPW|      The NOT PAW atoms are treated fully GPW


 ATOMIC KIND INFORMATION

  1. Atomic kind: W                                     Number of atoms:       1

     Orbital Basis Set                                  TZV2P-MOLOPT-PBE-GTH-q14

       Number of orbital shell sets:                                           1
       Number of orbital shells:                                              12
       Number of primitive Cartesian functions:                                6
       Number of Cartesian basis functions:                                   51
       Number of spherical basis functions:                                   42
       Norm type:                                                              2

       Normalised Cartesian orbitals:

                        Set   Shell   Orbital            Exponent    Coefficient

                          1       1    2s                3.202637       0.390454
                                                         2.970404       0.395569
                                                         1.054481      -0.613576
                                                         0.447462      -0.093621
                                                         0.172572      -0.034869
                                                         0.057796      -0.016637

                          1       2    3s                3.202637      -0.614093
                                                         2.970404       0.668497
                                                         1.054481      -0.142499
                                                         0.447462      -0.095130
                                                         0.172572       0.077989
                                                         0.057796       0.068808

                          1       3    4s                3.202637       1.092716
                                                         2.970404      -0.653617
                                                         1.054481       0.053652
                                                         0.447462       0.074208
                                                         0.172572      -0.385158
                                                         0.057796       0.131678

                          1       4    5s                3.202637       1.654250
                                                         2.970404      -1.282739
                                                         1.054481      -0.160143
                                                         0.447462      -0.015921
                                                         0.172572       0.144478
                                                         0.057796       0.032600

                          1       5    3px               3.202637       6.040412
                                                         2.970404      -4.932675
                                                         1.054481      -0.974837
                                                         0.447462      -0.208773
                                                         0.172572      -0.008465
                                                         0.057796      -0.000597
                          1       5    3py               3.202637       6.040412
                                                         2.970404      -4.932675
                                                         1.054481      -0.974837
                                                         0.447462      -0.208773
                                                         0.172572      -0.008465
                                                         0.057796      -0.000597
                          1       5    3pz               3.202637       6.040412
                                                         2.970404      -4.932675
                                                         1.054481      -0.974837
                                                         0.447462      -0.208773
                                                         0.172572      -0.008465
                                                         0.057796      -0.000597

                          1       6    4px               3.202637      -0.456554
                                                         2.970404       0.501115
                                                         1.054481      -0.482085
                                                         0.447462       0.002190
                                                         0.172572       0.123686
                                                         0.057796       0.014461
                          1       6    4py               3.202637      -0.456554
                                                         2.970404       0.501115
                                                         1.054481      -0.482085
                                                         0.447462       0.002190
                                                         0.172572       0.123686
                                                         0.057796       0.014461
                          1       6    4pz               3.202637      -0.456554
                                                         2.970404       0.501115
                                                         1.054481      -0.482085
                                                         0.447462       0.002190
                                                         0.172572       0.123686
                                                         0.057796       0.014461

                          1       7    5px               3.202637       0.341146
                                                         2.970404      -0.173550
                                                         1.054481       0.501233
                                                         0.447462      -0.160487
                                                         0.172572      -0.068662
                                                         0.057796       0.050806
                          1       7    5py               3.202637       0.341146
                                                         2.970404      -0.173550
                                                         1.054481       0.501233
                                                         0.447462      -0.160487
                                                         0.172572      -0.068662
                                                         0.057796       0.050806
                          1       7    5pz               3.202637       0.341146
                                                         2.970404      -0.173550
                                                         1.054481       0.501233
                                                         0.447462      -0.160487
                                                         0.172572      -0.068662
                                                         0.057796       0.050806

                          1       8    4dx2              3.202637      -1.177086
                                                         2.970404       1.305064
                                                         1.054481       0.508845
                                                         0.447462       0.161140
                                                         0.172572       0.030785
                                                         0.057796       0.001694
                          1       8    4dxy              3.202637      -2.038772
                                                         2.970404       2.260437
                                                         1.054481       0.881345
                                                         0.447462       0.279102
                                                         0.172572       0.053320
                                                         0.057796       0.002935
                          1       8    4dxz              3.202637      -2.038772
                                                         2.970404       2.260437
                                                         1.054481       0.881345
                                                         0.447462       0.279102
                                                         0.172572       0.053320
                                                         0.057796       0.002935
                          1       8    4dy2              3.202637      -1.177086
                                                         2.970404       1.305064
                                                         1.054481       0.508845
                                                         0.447462       0.161140
                                                         0.172572       0.030785
                                                         0.057796       0.001694
                          1       8    4dyz              3.202637      -2.038772
                                                         2.970404       2.260437
                                                         1.054481       0.881345
                                                         0.447462       0.279102
                                                         0.172572       0.053320
                                                         0.057796       0.002935
                          1       8    4dz2              3.202637      -1.177086
                                                         2.970404       1.305064
                                                         1.054481       0.508845
                                                         0.447462       0.161140
                                                         0.172572       0.030785
                                                         0.057796       0.001694

                          1       9    5dx2              3.202637       1.244992
                                                         2.970404      -1.375352
                                                         1.054481      -0.529259
                                                         0.447462      -0.172753
                                                         0.172572       0.033139
                                                         0.057796       0.007534
                          1       9    5dxy              3.202637       2.156390
                                                         2.970404      -2.382180
                                                         1.054481      -0.916703
                                                         0.447462      -0.299217
                                                         0.172572       0.057398
                                                         0.057796       0.013049
                          1       9    5dxz              3.202637       2.156390
                                                         2.970404      -2.382180
                                                         1.054481      -0.916703
                                                         0.447462      -0.299217
                                                         0.172572       0.057398
                                                         0.057796       0.013049
                          1       9    5dy2              3.202637       1.244992
                                                         2.970404      -1.375352
                                                         1.054481      -0.529259
                                                         0.447462      -0.172753
                                                         0.172572       0.033139
                                                         0.057796       0.007534
                          1       9    5dyz              3.202637       2.156390
                                                         2.970404      -2.382180
                                                         1.054481      -0.916703
                                                         0.447462      -0.299217
                                                         0.172572       0.057398
                                                         0.057796       0.013049
                          1       9    5dz2              3.202637       1.244992
                                                         2.970404      -1.375352
                                                         1.054481      -0.529259
                                                         0.447462      -0.172753
                                                         0.172572       0.033139
                                                         0.057796       0.007534

                          1      10    6dx2              3.202637      -1.576231
                                                         2.970404       1.580038
                                                         1.054481       0.514593
                                                         0.447462       0.187766
                                                         0.172572      -0.090633
                                                         0.057796       0.013897
                          1      10    6dxy              3.202637      -2.730113
                                                         2.970404       2.736707
                                                         1.054481       0.891302
                                                         0.447462       0.325220
                                                         0.172572      -0.156981
                                                         0.057796       0.024070
                          1      10    6dxz              3.202637      -2.730113
                                                         2.970404       2.736707
                                                         1.054481       0.891302
                                                         0.447462       0.325220
                                                         0.172572      -0.156981
                                                         0.057796       0.024070
                          1      10    6dy2              3.202637      -1.576231
                                                         2.970404       1.580038
                                                         1.054481       0.514593
                                                         0.447462       0.187766
                                                         0.172572      -0.090633
                                                         0.057796       0.013897
                          1      10    6dyz              3.202637      -2.730113
                                                         2.970404       2.736707
                                                         1.054481       0.891302
                                                         0.447462       0.325220
                                                         0.172572      -0.156981
                                                         0.057796       0.024070
                          1      10    6dz2              3.202637      -1.576231
                                                         2.970404       1.580038
                                                         1.054481       0.514593
                                                         0.447462       0.187766
                                                         0.172572      -0.090633
                                                         0.057796       0.013897

                          1      11    5fx3              3.202637       0.175204
                                                         2.970404       0.110416
                                                         1.054481      -0.252513
                                                         0.447462      -0.154881
                                                         0.172572      -0.010571
                                                         0.057796       0.000077
                          1      11    5fx2y             3.202637       0.391768
                                                         2.970404       0.246898
                                                         1.054481      -0.564636
                                                         0.447462      -0.346325
                                                         0.172572      -0.023638
                                                         0.057796       0.000172
                          1      11    5fx2z             3.202637       0.391768
                                                         2.970404       0.246898
                                                         1.054481      -0.564636
                                                         0.447462      -0.346325
                                                         0.172572      -0.023638
                                                         0.057796       0.000172
                          1      11    5fxy2             3.202637       0.391768
                                                         2.970404       0.246898
                                                         1.054481      -0.564636
                                                         0.447462      -0.346325
                                                         0.172572      -0.023638
                                                         0.057796       0.000172
                          1      11    5fxyz             3.202637       0.678562
                                                         2.970404       0.427640
                                                         1.054481      -0.977979
                                                         0.447462      -0.599852
                                                         0.172572      -0.040941
                                                         0.057796       0.000298
                          1      11    5fxz2             3.202637       0.391768
                                                         2.970404       0.246898
                                                         1.054481      -0.564636
                                                         0.447462      -0.346325
                                                         0.172572      -0.023638
                                                         0.057796       0.000172
                          1      11    5fy3              3.202637       0.175204
                                                         2.970404       0.110416
                                                         1.054481      -0.252513
                                                         0.447462      -0.154881
                                                         0.172572      -0.010571
                                                         0.057796       0.000077
                          1      11    5fy2z             3.202637       0.391768
                                                         2.970404       0.246898
                                                         1.054481      -0.564636
                                                         0.447462      -0.346325
                                                         0.172572      -0.023638
                                                         0.057796       0.000172
                          1      11    5fyz2             3.202637       0.391768
                                                         2.970404       0.246898
                                                         1.054481      -0.564636
                                                         0.447462      -0.346325
                                                         0.172572      -0.023638
                                                         0.057796       0.000172
                          1      11    5fz3              3.202637       0.175204
                                                         2.970404       0.110416
                                                         1.054481      -0.252513
                                                         0.447462      -0.154881
                                                         0.172572      -0.010571
                                                         0.057796       0.000077

                          1      12    6fx3              3.202637       0.279450
                                                         2.970404      -0.188766
                                                         1.054481      -0.110968
                                                         0.447462       0.012734
                                                         0.172572       0.000574
                                                         0.057796       0.002369
                          1      12    6fx2y             3.202637       0.624869
                                                         2.970404      -0.422094
                                                         1.054481      -0.248132
                                                         0.447462       0.028474
                                                         0.172572       0.001285
                                                         0.057796       0.005297
                          1      12    6fx2z             3.202637       0.624869
                                                         2.970404      -0.422094
                                                         1.054481      -0.248132
                                                         0.447462       0.028474
                                                         0.172572       0.001285
                                                         0.057796       0.005297
                          1      12    6fxy2             3.202637       0.624869
[...]

 T. D. Kuehne, M. Iannuzzi, M. Del Ben, V. V. Rybkin, P. Seewald, F. Stein, T. 
 Laino, R. Z. Khaliullin, O. Schuett, F. Schiffmann, D. Golze, J. Wilhelm, S. 
 Chulkov, M. H. Bani-Hashemian, V. Weber, U. Borstnik, M. Taillefumier, A. S. 
 Jakobovits, A. Lazzaro, H. Pabst, T. Mueller, R. Schade, M. Guidon, S. 
 Andermatt, N. Holmberg, G. K. Schenter, A. Hehn, A. Bussy, F. Belleflamme, G. 
 Tabacchi, A. Gloess, M. Lass, I. Bethune, C. J. Mundy, C. Plessl, M. Watkins, 
 J. VandeVondele, M. Krack, J. Hutter.
 J. Chem. Phys. 152, 194103 (2020).
 CP2K: An electronic structure and molecular dynamics software package - 
 Quickstep: Efficient and accurate electronic structure calculations.
 https://doi.org/10.1063/5.0007045

 O. Schuett, P. Messmer, J. Hutter, J. VandeVondele.
 Electronic Structure Calculations on Graphics Processing Units, 173-190 (2016).
 GPU-Accelerated Sparse Matrix-Matrix Multiplication for Linear Scaling Density 
 Functional Theory.
 https://doi.org/10.1002/9781118670712.ch8

 J. Hutter, M. Iannuzzi, F. Schiffmann, J. VandeVondele.
 WIREs Comput Mol Sci. 4, 15-25 (2014).
 CP2K: atomistic simulations of condensed matter systems.
 https://doi.org/10.1002/wcms.1159

 U. Borstnik, J. VandeVondele, V. Weber, J. Hutter.
 Parallel Comput. 40, 47-58 (2014).
 Sparse matrix multiplication: The distributed block-compressed sparse row 
 library.
 https://doi.org/10.1016/j.parco.2014.03.012

 J. VandeVondele, J. Hutter.
 J. Chem. Phys. 127, 114105 (2007).
 Gaussian basis sets for accurate calculations on molecular systems in gas and 
 condensed phases.
 https://doi.org/10.1063/1.2770708

 M. Krack.
 Theor. Chem. Acc. 114, 145-152 (2005).
 Pseudopotentials for H to Kr optimized for gradient-corrected 
 exchange-correlation functionals.
 https://doi.org/10.1007/s00214-005-0655-y

 M. Frigo, S. G. Johnson.
 Proc. IEEE 93, 216-231 (2005).
 The design and implementation of FFTW3.
 https://doi.org/10.1109/JPROC.2004.840301

 M. Krack, M. Parrinello.
 Phys. Chem. Chem. Phys. 2, 2105-2112 (2000).
 All-electron ab-initio molecular dynamics.
 https://doi.org/10.1039/b001167n

 G. Lippert, J. Hutter, M. Parrinello.
 Theor. Chem. Acc. 103, 124-140 (1999).
 The Gaussian and augmented-plane-wave density functional method for ab initio 
 molecular dynamics simulations.
 https://doi.org/10.1007/s002140050523

 C. Hartwigsen, S. Goedecker, J. Hutter.
 Phys. Rev. B 58, 3641-3662 (1998).
 Relativistic separable dual-space Gaussian pseudopotentials from H to Rn.
 https://doi.org/10.1103/PhysRevB.58.3641

 S. Goedecker, M. Teter, J. Hutter.
 Phys. Rev. B 54, 1703-1710 (1996).
 Separable dual-space Gaussian pseudopotentials.
 https://doi.org/10.1103/PhysRevB.54.1703

 J. P. Perdew, K. Burke, M. Ernzerhof.
 Phys. Rev. Lett. 77, 3865-3868 (1996).
 Generalized gradient approximation made simple.
 https://doi.org/10.1103/PhysRevLett.77.3865


 -------------------------------------------------------------------------------
 -                                                                             -
 -                                T I M I N G                                  -
 -                                                                             -
 -------------------------------------------------------------------------------
 SUBROUTINE                       CALLS  ASD         SELF TIME        TOTAL TIME
                                MAXIMUM       AVERAGE  MAXIMUM  AVERAGE  MAXIMUM
 CP2K                                 1  1.0     0.02     0.02 54578.39 54578.39
 qs_energies                          1  2.0     0.00     0.00 54577.40 54577.43
 qs_energies_properties               1  3.0     0.00     0.00 53910.75 53910.78
 post_scf_bandstructure               1  4.0     0.00     0.00 53910.75 53910.78
 gw                                   1  5.0     0.00     0.00 53758.32 53758.32
 gw_calc_small_cell_full_kp           1  6.0     0.00     0.00 53038.87 53038.88
 dbt_total                      *******  9.8   110.39   122.93 38458.86 40654.88
 dbt_contract                   ******* 10.6   192.02   212.81 29805.12 31575.97
 dbt_tas_multiply               7873338 13.0    21.86    24.75 27663.72 29418.68
 dbt_tas_total                  7873338 14.0   984.79  1078.62 27650.11 29403.61
 compute_Sigma_c                      1  7.0     0.01     0.01 24448.36 24448.39
 compute_chi                          1  7.0     0.15     0.17 18110.25 18110.28
 contract_to_Sigma                  427  8.0   115.73   136.99 14189.86 15572.60
 dbt_tas_dbm                    7873338 15.0    20.38    23.87 13782.69 14882.03
 dbm_multiply                   7873338 17.0 13734.83 14829.49 13734.83 14829.49
 dbt_copy                       ******* 11.1   103.35   118.77  9910.57 10622.91
 contract_M_occ_vir_to_chi          210  8.0   196.03   240.40  8107.11 10310.35
 contract_W                         217  8.0    19.27    20.59  9050.26  9873.33
 compute_W_real_space                 1  7.0    21.65    22.54  9578.99  9579.24
 contract_to_Sigma_3c_x_G       5213670  9.0    14.75    17.48  7627.32  8614.56
 compute_Minv_and_Vsqrt               1  8.0     0.23     0.25  8490.54  8490.84
 build_2c_coulomb_matrix_kp_sma       2  9.0    10.66    11.90  8473.61  8473.66
 G_times_3c                       24420  8.0    26.77    29.25  7745.67  8260.21
 dbt_reshape                    8578003 12.0  5734.64  6313.20  7325.20  8055.62
 dbt_tas_mm_2                   2979554 16.1     9.63    12.52  6281.63  7500.25
 build_2c_coulomb_matrix_kp_sma  655360 10.0  7091.46  7466.50  7091.46  7466.50
 contract_to_Sigma_contract       24827  9.0    26.57    29.75  6396.44  7462.30
 mp_sync                        ******* 12.1  4233.61  7114.16  4233.61  7114.16
 dbt_tas_estimate_result_nze    3936669 13.5  2602.90  2894.43  6030.70  6463.91
 get_t_3c_int                   8485196  9.6    79.39    99.43  4892.24  5478.92
 dbt_tas_mm_3T                  3261534 16.2     6.10     7.58  4535.20  4917.72
 dbt_tas_reshape                8798846 15.5   123.02   138.29  3187.18  3484.76
 dbt_tas_mm_1N                  2066796 15.5     3.85     4.35  2940.45  3140.97
 convert_to_new_pgrid           ******* 15.0   144.13   162.52  2328.12  2541.48
 dbm_copy                       ******* 16.0  2183.99  2395.40  2183.99  2395.40
 reshape_mm_small               7873338 15.0   828.73   914.89  1934.58  2100.69
 dbm_reserve_blocks             ******* 16.6  1662.23  1761.52  1662.23  1761.52
 dbt_tas_reserve_blocks_index   ******* 15.8    51.10    56.28  1658.11  1743.35
 dbt_remap                       521463 11.0    87.18    97.52  1585.56  1724.70
 dbt_tas_reshape_buffer_fill    8798846 16.5  1529.89  1670.89  1529.89  1670.89
 dbt_tas_copy                   5477042 12.6   908.99  1082.53  1295.35  1559.52
 dbt_copy_nocomm                1796460 11.0   831.94  1146.31  1084.80  1489.59
 dbt_reserve_blocks_index_array ******* 13.0    18.77    22.03  1073.31  1216.87
 dbt_reserve_blocks_index       ******* 13.9    24.43    28.54  1074.84  1216.28
 dbt_tas_reshape_buffer_obtain  8798846 16.5   904.97  1013.52  1080.93  1198.45
 dbt_tas_create_split           ******* 16.1    33.99    38.38   984.31  1105.92
 dbt_tas_create_split_rows_or_c ******* 17.1   129.43   145.26   950.33  1069.52
 reshape_mm_compatible          7873338 15.0   170.10   187.97   933.65  1031.90
 dbt_communicate_buffer         8578003 13.0   744.91   824.24   744.91   824.24
 dbt_tas_replicate              7873338 15.0   418.78   452.86   717.07   775.76
 compute_Sigma_x                      1  7.0     0.00     0.00   756.36   756.38
 dbcsr_complete_redistribute     481504  9.6    17.08    23.53   657.85   725.40
 dbt_tas_distribution_new       ******* 15.8   349.12   382.35   654.26   722.71
 create_and_init_bs_env_for_gw        1  6.0     0.00     0.00   719.45   719.47
 change_split                   ******* 15.5    60.98    67.13   625.73   700.51
 compute_3c_integrals                 1  7.0     0.11     0.11   669.41   669.41
 build_3c_integrals                   1  8.0   487.77   645.03   511.32   668.57
 scf_env_do_scf                       1  3.0     0.00     0.00   666.38   666.38
 scf_env_do_scf_inner_loop           65  4.0     0.01     0.02   666.38   666.38
 dbm_add                        7873338 15.0   609.53   653.45   609.53   653.45
 qs_scf_new_mos_kp                   65  5.0     0.00     0.00   651.74   651.81
 do_general_diag_kp                  65  6.0     0.69     0.83   651.74   651.81
 copy_dbcsr_to_fm                268649  8.1     2.91     3.29   599.11   605.36
 dbt_tas_reserve_blocks_templat ******* 14.1    70.36    79.12   506.99   599.44
 mp_cart_create                 ******* 16.7   491.66   550.40   530.39   596.67
 mp_sum_dm                       655424 10.0   585.64   589.91   585.64   589.91
 G_occ_vir                          121  8.0     0.61     0.79   570.44   573.69
 fm_to_local_tensor              146072  9.0     3.57     4.25   491.93   492.00
 dbcsr_desymmetrize_deep         415833  8.4     6.83     8.48   457.15   465.56
 add_V_L                         327680 10.0    13.74   445.15    13.74   445.15
 dbt_tas_communicate_buffer     ******* 17.3   406.24   442.79   406.24   442.79
 dbt_tas_reshape_communicate_bu 8798846 16.5    14.40    16.27   381.39   419.25
 copy_fm_to_dbcsr                212855  9.4     0.98     1.13   329.88   399.13
 add_rs_to_ikp                  *******  9.9   380.15   394.33   380.15   394.33
 mp_alltoall_i22                 897337 10.1   288.94   362.37   288.94   362.37
 trafo_rs_to_ikp                  10736  8.1     7.78     8.03   343.84   351.30
 add_ikp_to_rs                  *******  9.9   307.59   345.82   307.59   345.82
 dbt_reserve_blocks_template    1796460 12.0     8.33    11.65   252.86   343.27
 mp_alltoall_d11v               2692011 10.5   339.00   341.40   339.00   341.40
 mp_comm_dup                    ******* 18.6   267.74   298.07   285.14   318.78
 mp_alltoall_i11v               1860345 10.4   316.93   317.20   316.93   317.20
 dbt_permute_index              ******* 12.3   242.96   269.27   273.97   304.91
 add_ikp_to_all_rs                 9848  8.0     6.68     7.27   270.40   282.13
 global_matrix_to_local_matrix   146072 10.0     2.87     6.15   197.95   267.54
 dbt_tas_create_new             ******* 15.3   244.29   266.77   244.29   266.77
 fm_to_local_array                  934  8.1    72.59    77.61   258.69   259.62
 dbt_tas_merge                  2979554 15.1   157.39   196.63   206.57   258.04
 local_dbt_to_global_fm              91  8.0     0.31     0.36   250.12   250.12
 mp_comm_split_direct           ******* 18.1   212.57   235.68   224.48   250.07
 dbt_align_index                ******* 11.5    34.40    38.36   223.26   246.10
 mp_waitall_1                   1428679 11.2   159.17   222.99   159.17   222.99
 send_data                       146072 11.0     0.18     0.25   160.87   220.16
 communicate_buffer              146072 12.0     2.75    24.19   160.69   219.98
 mp_comm_free                   ******* 15.7   183.99   202.62   183.99   202.62
 dbt_tas_mp_comm                4399423 13.2    20.93    23.05   177.68   198.14
 mp_sum_dm3                        1060  9.0   181.53   192.18   181.53   192.18
 fm_add_ikp_to_rs                123904  9.0    77.41    79.12   121.32   165.47
 dbm_filter                     ******* 14.9   140.47   164.89   140.47   164.89
 hybrid_alltoall_any             415833  9.4     1.98     2.20   157.41   158.53
 cp_cfm_gemm                     284468 10.9   126.86   155.74   126.86   155.74
 parallel_gemm_cfm               280952  8.9     0.29     0.35   126.46   155.26
 parallel_gemm_cfm_gemm          280952  9.9     0.29     0.37   126.16   154.99
 compute_QP_energies                  1  7.0     0.08     0.10   144.91   144.94
 trafo_to_k_and_nn                71492  8.0     0.64     0.76   144.57   144.61
 add_R                          *******  9.3    94.91   102.08   129.17   139.66
 kpoint_density_transform            65  7.0     0.21     0.29   134.12   134.21
 power                            20408  8.0    12.20    12.44   124.97   128.19
 reshape_mm_template            1042926 15.5    61.04    66.61   110.07   119.99
 dbt_destroy                    ******* 11.2   101.91   112.98   108.56   119.96
 diag_complex                     20408  9.0   112.77   115.78   112.77   115.78
 fm_MWM_R_t_to_local_tensor_W_R      30  8.0     0.04     0.06   110.96   110.96
 mp_cart_get                    ******* ****    92.68   108.29    92.68   108.29
 mult_W_with_Minv                    30  8.0     1.22     1.34   107.67   107.94
 dbt_distribution_new_expert    1335080 12.3    18.57    21.00    93.52   102.02
 fm_trafo_rs_to_ikp               71492  9.0    47.00    48.14    91.08   100.96
 rskp_transform                   73592  7.1     2.15    98.29     2.15    98.29
 cp_cfm_heevd                      4948  7.5     0.01     0.01    96.51    96.62
 cp_cfm_heevd_base                 4948  8.5    96.50    96.62    96.50    96.62
 get_data                        146072 11.0     7.03    92.12     7.44    92.67
 mp_isend_dv                    ******* 12.1     3.22    91.47     3.22    91.47
 get_V_tr_R                          34  9.0     0.16     0.20    87.26    87.55
 mp_comm_size                   ******* -6.8    66.31    79.53    66.31    79.53
 dbm_scale                      ******* 13.5    57.96    74.05    57.96    74.05
 dos_pdos_ldos                        1  5.0     0.01     0.01    71.81    71.84
 SOC_ev                            2344  6.0     0.03     0.04    67.85    67.91
 local_dbt_to_global_mat          87451  9.0     1.08     1.32    42.54    65.58
 is_cell_in_index_to_cell       *******  9.8    58.52    63.28    58.52    63.28
 dbcsr_finalize                 1878267 11.0    13.21    14.66    57.95    61.92
 cp_fm_start_copy_general        199680  7.3     1.93     3.43    58.65    59.29
 mp_comm_rank                   ******* -6.8    51.52    58.65    51.52    58.65
 mp_cart_sub                     537377 10.1    57.90    58.06    57.90    58.06
 local_matrix_to_global_matrix    87451 10.0     0.36     0.39    35.01    57.10
 dbt_create_new                  667540 11.8    11.68    15.05    51.14    56.33
 create_and_init_bs_env               1  5.0     0.00     0.00    53.76    53.76
 compute_cfm_mo_coeff_kp_and_ei       1  6.0     0.01     0.01    53.76    53.76
 rsmat_to_kp                       7032  7.2     0.11     0.13    51.89    52.22
 dbt_tas_reshape_get_coord      8798846 16.5    44.50    51.09    44.50    51.09
 mp_allgather_i                  399360  8.3    46.68    47.67    46.68    47.67
 transform_dmat                   33280  8.0     0.94    43.46     0.94    43.46
 dbt_tas_replicate_communicate_ 5328330 15.9     8.36    10.05    38.31    42.36
 mp_alltoall_i                  ******* 15.2    37.84    41.61    37.84    41.61
 mp_sum_l                       ******* 15.2    35.48    39.74    35.48    39.74
 dbt_create_3c_R1_R2                 62  8.0     5.05     6.05    36.03    38.71
 dbcsr_filter_anytype            661402 11.0     4.72     5.21    33.06    38.66
 cp_cfm_geeig_canon                1172  7.0     0.01     0.02    35.87    35.91
 dbt_create_template            3310048  9.0    32.94    35.65    32.94    35.65
 dbcsr_merge_all                 707491 11.8    21.50    23.83    29.37    32.32
 dbt_create_matrix               146072 10.0     1.84     1.95    26.95    29.45
 soc                                  1  5.0     0.00     0.00    26.86    26.86
 H_KS_spinor_kp                       1  6.0     0.02     0.02    26.79    26.81
 dbt_pgrid_create_expert        1335083 13.3     3.95     6.39    22.11    26.05
 set_blocks                       87451 11.0     1.93    13.08    10.11    25.92
 dbt_tas_reshape_alltoall       8798846 16.5    12.14    14.56    20.01    22.45
 destroy_t_2d                        62  8.0     5.96     6.84    20.83    21.58
 dbt_nd_mp_comm                  667535 11.8     2.83     3.56    16.92    20.26
 dbt_tas_merge_communicate_buff 2979554 16.1     5.29     6.97    14.59    18.83
 alloc_block_3c                       1  9.0     0.47     0.49    18.42    18.80
 setup_cells_3c                       1  7.0     0.94     0.94    18.76    18.76
 comm_data                        87451 11.0     0.45     2.86    15.14    18.13
 build_3c_integral_block          13311  8.0    10.54    10.93    17.28    17.82
 mp_max_i                       ******* 11.6    14.94    16.78    14.94    16.78
 mp_waitall_2                    174902 12.0    14.14    16.33    14.14    16.33
 mp_isend_im2                   ******* 12.9     0.78    15.71     0.78    15.71
 dbt_distribution_destroy       1335080 12.3    11.10    12.88    13.58    15.59
 mp_sum_i                       7104200 15.9    12.54    15.27    12.54    15.27
 mp_bcast_i                     ******* 18.1    12.88    15.12    12.88    15.12
 heuristic_RI_regularization          1  7.0     0.00     0.00    15.07    15.07
 dbcsr_work_create              1123324 10.4     8.10     9.75    11.99    14.30
 dbcsr_iterator_start           4034409 10.9    12.01    12.51    13.21    13.85
 mp_dims_create                 ******* 14.4    11.09    13.24    11.09    13.24
 mp_cart_rank                   ******* 15.9    11.20    13.23    11.20    13.23
 dbcsr_work_destroy_all         1123324 11.2     7.06     8.50    10.19    12.01
 dbt_tas_merge_alltoall         2979554 16.1     5.87     7.47     9.33    11.70
 dbt_tas_replicate_alltoall     5328330 15.9     6.66     7.56    10.12    11.49
 get_Minv_Vtr_Minv_R                  1  8.0     0.05     0.05    11.23    11.28
 dbt_buffer_get_index           ******* 16.8     9.02    11.18     9.02    11.18
 copy_fm_to_dbcsr_bc             212855 10.4     3.16     3.38    10.07    10.77
 dbt_copy_matrix_to_tensor       146072 10.0     3.96     4.32     9.50    10.31
 dbcsr_create_new               1583278  9.9     8.03     8.55     9.52    10.12
 send_sizes_1                    146072 11.0     0.18     0.19     8.00    10.11
 trafo_V_xc_R_to_kp                   1  7.0     0.01     0.01     9.67     9.71
 dbcsr_iterator_stop            4034409 10.9     6.80     7.09     7.81     8.10
 dbcsr_data_release             ******* 12.0     6.86     7.99     6.86     7.99
 mp_bcast_iv                     798765  8.3     7.04     7.97     7.04     7.97
 reserve_blocks                  146072 11.0     0.73     0.85     7.46     7.78
 send_sizes_2                    146072 11.0     0.19     0.21     7.23     7.45
 dbcsr_data_new                 ******* 11.4     5.95     7.00     5.95     7.00
 qs_ks_update_qs_env                 65  5.0     0.00     0.00     6.76     6.83
 fill_buffer                      87451 11.0     2.66     6.59     2.90     6.83
 abc_contract_xsmm                53443  9.0     6.32     6.64     6.32     6.64
 mp_sum_dv                        78724  8.9     3.63     6.60     3.63     6.60
 qs_ks_build_kohn_sham_matrix        68  7.0     0.03     0.03     6.49     6.57
 rebuild_ks_matrix                   65  6.0     0.00     0.00     6.20     6.27
 build_2c_integrals                  34 10.0     0.16     3.92     0.34     6.16
 copy_dbcsr_to_fm_bc             268649  9.1     2.58     2.83     5.73     6.12
 transfer_pw2rs                     341 10.6     0.00     0.00     5.44     5.64
 -------------------------------------------------------------------------------

 The number of warnings for this run is : 2
 
 -------------------------------------------------------------------------------
  **** **** ******  **  PROGRAM ENDED AT                 2025-03-09 01:26:51.811
 ***** ** ***  *** **   PROGRAM RAN ON                              f01r01c03s09
 **    ****   ******    PROGRAM RAN BY                                   di38fab
 ***** **    ** ** **   PROGRAM PROCESS ID                               1648977
  **** **  *******  **  PROGRAM STOPPED IN /hppfs/scratch/04/di38fab/04_TMD/3_WS
                                           2__/TZV2Pnonaug
