 DBCSR| CPU Multiplication driver                                           BLAS (U)
 DBCSR| Multrec recursion limit                                              512 (U)
 DBCSR| Multiplication stack size                                           1000 (D)
 DBCSR| Maximum elements for images                                    UNLIMITED (U)
 DBCSR| Multiplicative factor virtual images                                   1 (U)
 DBCSR| Use multiplication densification                                       T (D)
 DBCSR| Multiplication size stacks                                             3 (U)
 DBCSR| Use memory pool for CPU allocation                                     F (U)
 DBCSR| Number of 3D layers                                               SINGLE (U)
 DBCSR| Use MPI memory allocation                                              F (U)
 DBCSR| Use RMA algorithm                                                      F (U)
 DBCSR| Use Communication thread                                               T (U)
 DBCSR| Communication thread load                                             45 (D)
 DBCSR| MPI: My process id                                                     0
 DBCSR| MPI: Number of processes                                             128
 DBCSR| OMP: Current number of threads                                        12
 DBCSR| OMP: Max number of threads                                            12
 DBCSR| Split modifier for TAS multiplication algorithm                  1.0E+00 (U)


  **** **** ******  **  PROGRAM STARTED AT               2025-03-20 01:53:35.695
 ***** ** ***  *** **   PROGRAM STARTED ON                          f01r01c01s12
 **    ****   ******    PROGRAM STARTED BY                               di38fab
 ***** **    ** ** **   PROGRAM PROCESS ID                               2091223
  **** **  *******  **  PROGRAM STARTED IN /hppfs/scratch/04/di38fab/04_TMD/3_WS
                                           2__/TZV2Pnonaug/1e-3

 CP2K| version string:                 CP2K version 2025.1 (Development Version)
 CP2K| source code revision number:                                  git:d2e611a
 CP2K| cp2kflags: omp libint fftw3 libxc parallel scalapack max_contr=4         
 CP2K| is freely available from                            https://www.cp2k.org/
 CP2K| Program compiled at                       Thu 06 Mar 2025 05:09:20 PM CET
 CP2K| Program compiled on                                               login02
 CP2K| Program compiled for                                        Supermuc-foss
 CP2K| Data directory path                  /hppfs/work/pn36zo/di38fab/cp2k/data
 CP2K| Input file name                                                    GW.inp

 GLOBAL| Force Environment number                                              1
 GLOBAL| Basis set file name                                        BASIS_MOLOPT
 GLOBAL| Potential file name            /hppfs/work/pn36zo/di38fab/cp2k/data/GTH
 GLOBAL| MM Potential file name                                     MM_POTENTIAL
 GLOBAL| Coordinate file name                                      __STD_INPUT__
 GLOBAL| Method name                                                        CP2K
 GLOBAL| Project name                                                        WS2
 GLOBAL| Run type                                                         ENERGY
 GLOBAL| FFT library                                                       FFTW3
 GLOBAL| Diagonalization library                                       ScaLAPACK
 GLOBAL| DGEMM library                                                      BLAS
 GLOBAL| Orthonormality check for eigenvectors                          DISABLED
 GLOBAL| Matrix multiplication library                                 ScaLAPACK
 GLOBAL| All-to-all communication in single precision                          F
 GLOBAL| FFTs using library dependent lengths                                  F
 GLOBAL| Grid backend                                                       AUTO
 GLOBAL| Global print level                                               MEDIUM
 GLOBAL| MPI I/O enabled                                                       T
 GLOBAL| Total number of message passing processes                           128
 GLOBAL| Number of threads for this process                                   12
 GLOBAL| This output is from process                                           0
 GLOBAL| OpenMP stack size per thread (OMP_STACKSIZE)                    default
 GLOBAL| CPU model name             Intel(R) Xeon(R) Platinum 8174 CPU @ 3.10GHz

 MEMORY| system memory details [Kb]
 MEMORY|                        rank 0           min           max       average
 MEMORY| MemTotal            792068892     792068880     792068932     792068893
 MEMORY| MemFree             778732796     778390984     779893684     778903677
 MEMORY| Buffers                     0             0             0             0
 MEMORY| Cached                2286732       2277992       2312260       2295089
 MEMORY| Slab                  1225592        957156       1225592       1182419
 MEMORY| SReclaimable           261260        213844        272920        262657
 MEMORY| MemLikelyFree       781280788     780953328     782392404     781461425


 *** Fundamental physical constants (SI units) ***

 *** Literature: B. J. Mohr and B. N. Taylor,
 ***             CODATA recommended values of the fundamental physical
 ***             constants: 2006, Web Version 5.1
 ***             http://physics.nist.gov/constants

 Speed of light in vacuum [m/s]                             2.99792458000000E+08
 Magnetic constant or permeability of vacuum [N/A**2]       1.25663706143592E-06
 Electric constant or permittivity of vacuum [F/m]          8.85418781762039E-12
 Planck constant (h) [J*s]                                  6.62606896000000E-34
 Planck constant (h-bar) [J*s]                              1.05457162825177E-34
 Elementary charge [C]                                      1.60217648700000E-19
 Electron mass [kg]                                         9.10938215000000E-31
 Electron g factor [ ]                                     -2.00231930436220E+00
 Proton mass [kg]                                           1.67262163700000E-27
 Fine-structure constant                                    7.29735253760000E-03
 Rydberg constant [1/m]                                     1.09737315685270E+07
 Avogadro constant [1/mol]                                  6.02214179000000E+23
 Boltzmann constant [J/K]                                   1.38065040000000E-23
 Atomic mass unit [kg]                                      1.66053878200000E-27
 Bohr radius [m]                                            5.29177208590000E-11

 *** Conversion factors ***

 [u] -> [a.u.]                                              1.82288848426455E+03
 [Angstrom] -> [Bohr] = [a.u.]                              1.88972613288564E+00
 [a.u.] = [Bohr] -> [Angstrom]                              5.29177208590000E-01
 [a.u.] -> [s]                                              2.41888432650478E-17
 [a.u.] -> [fs]                                             2.41888432650478E-02
 [a.u.] -> [J]                                              4.35974393937059E-18
 [a.u.] -> [N]                                              8.23872205491840E-08
 [a.u.] -> [K]                                              3.15774647902944E+05
 [a.u.] -> [kJ/mol]                                         2.62549961709828E+03
 [a.u.] -> [kcal/mol]                                       6.27509468713739E+02
 [a.u.] -> [Pa]                                             2.94210107994716E+13
 [a.u.] -> [bar]                                            2.94210107994716E+08
 [a.u.] -> [atm]                                            2.90362800883016E+08
 [a.u.] -> [eV]                                             2.72113838565563E+01
 [a.u.] -> [Hz]                                             6.57968392072181E+15
 [a.u.] -> [1/cm] (wave numbers)                            2.19474631370540E+05
 [a.u./Bohr**2] -> [1/cm]                                   5.14048714338585E+03
 

 CELL_TOP| Volume [angstrom^3]:                                       131.860110
 CELL_TOP| Vector a [angstrom     3.186     0.000     0.000   |a| =     3.186000
 CELL_TOP| Vector b [angstrom    -1.593     2.759     0.000   |b| =     3.186000
 CELL_TOP| Vector c [angstrom     0.000     0.000    15.000   |c| =    15.000000
 CELL_TOP| Angle (b,c), alpha [degree]:                                90.000000
 CELL_TOP| Angle (a,c), beta  [degree]:                                90.000000
 CELL_TOP| Angle (a,b), gamma [degree]:                               120.000000
 CELL_TOP| Numerically orthorhombic:                                          NO
 CELL_TOP| Periodicity                                                        XY

 GENERATE|  Preliminary Number of Bonds generated:                             0
 GENERATE|  Achieved consistency in connectivity generation.

 CELL| Volume [angstrom^3]:                                           131.860110
 CELL| Vector a [angstrom]:       3.186     0.000     0.000   |a| =     3.186000
 CELL| Vector b [angstrom]:      -1.593     2.759     0.000   |b| =     3.186000
 CELL| Vector c [angstrom]:       0.000     0.000    15.000   |c| =    15.000000
 CELL| Angle (b,c), alpha [degree]:                                    90.000000
 CELL| Angle (a,c), beta  [degree]:                                    90.000000
 CELL| Angle (a,b), gamma [degree]:                                   120.000000
 CELL| Numerically orthorhombic:                                              NO
 CELL| Periodicity                                                            XY

 CELL_REF| Volume [angstrom^3]:                                       131.860110
 CELL_REF| Vector a [angstrom     3.186     0.000     0.000   |a| =     3.186000
 CELL_REF| Vector b [angstrom    -1.593     2.759     0.000   |b| =     3.186000
 CELL_REF| Vector c [angstrom     0.000     0.000    15.000   |c| =    15.000000
 CELL_REF| Angle (b,c), alpha [degree]:                                90.000000
 CELL_REF| Angle (a,c), beta  [degree]:                                90.000000
 CELL_REF| Angle (a,b), gamma [degree]:                               120.000000
 CELL_REF| Numerically orthorhombic:                                          NO
 CELL_REF| Periodicity                                                        XY

 *** WARNING in cryssym.F:180 :: Symmetry library SPGLIB not available ***


 *******************************************************************************
                                    Kpoints
 *******************************************************************************
 BRILLOUIN| K-point scheme                                        Monkhorst-Pack
 BRILLOUIN| K-Point grid                                            32   32    1
 BRILLOUIN| Accuracy in Symmetry determination                      0.100000E-05
 BRILLOUIN| K-Point point group symmetrization                               OFF
 BRILLOUIN| Wavefunction type                                            COMPLEX
 BRILLOUIN| List of Kpoints [2 Pi/Bohr]                                      512
 BRILLOUIN| Number           Weight            X              Y              Z
 BRILLOUIN|     1           0.00195       -0.48438       -0.48438        0.00000
 BRILLOUIN|     2           0.00195       -0.48438       -0.45312        0.00000
 BRILLOUIN|     3           0.00195       -0.48438       -0.42188        0.00000
 BRILLOUIN|     4           0.00195       -0.48438       -0.39062        0.00000
 BRILLOUIN|     5           0.00195       -0.48438       -0.35938        0.00000
 BRILLOUIN|     6           0.00195       -0.48438       -0.32812        0.00000
 BRILLOUIN|     7           0.00195       -0.48438       -0.29688        0.00000
 BRILLOUIN|     8           0.00195       -0.48438       -0.26562        0.00000
 BRILLOUIN|     9           0.00195       -0.48438       -0.23438        0.00000
 BRILLOUIN|    10           0.00195       -0.48438       -0.20312        0.00000
 BRILLOUIN|    11           0.00195       -0.48438       -0.17188        0.00000
 BRILLOUIN|    12           0.00195       -0.48438       -0.14062        0.00000
 BRILLOUIN|    13           0.00195       -0.48438       -0.10938        0.00000
 BRILLOUIN|    14           0.00195       -0.48438       -0.07812        0.00000
 BRILLOUIN|    15           0.00195       -0.48438       -0.04688        0.00000
 BRILLOUIN|    16           0.00195       -0.48438       -0.01562        0.00000
 BRILLOUIN|    17           0.00195       -0.48438        0.01562        0.00000
 BRILLOUIN|    18           0.00195       -0.48438        0.04688        0.00000
 BRILLOUIN|    19           0.00195       -0.48438        0.07812        0.00000
 BRILLOUIN|    20           0.00195       -0.48438        0.10938        0.00000
 BRILLOUIN|    21           0.00195       -0.48438        0.14062        0.00000
 BRILLOUIN|    22           0.00195       -0.48438        0.17188        0.00000
 BRILLOUIN|    23           0.00195       -0.48438        0.20312        0.00000
 BRILLOUIN|    24           0.00195       -0.48438        0.23438        0.00000
 BRILLOUIN|    25           0.00195       -0.48438        0.26562        0.00000
 BRILLOUIN|    26           0.00195       -0.48438        0.29688        0.00000
 BRILLOUIN|    27           0.00195       -0.48438        0.32812        0.00000
 BRILLOUIN|    28           0.00195       -0.48438        0.35938        0.00000
 BRILLOUIN|    29           0.00195       -0.48438        0.39062        0.00000
 BRILLOUIN|    30           0.00195       -0.48438        0.42188        0.00000
 BRILLOUIN|    31           0.00195       -0.48438        0.45312        0.00000
 BRILLOUIN|    32           0.00195       -0.48438        0.48438        0.00000
 BRILLOUIN|    33           0.00195       -0.45312       -0.48438        0.00000
 BRILLOUIN|    34           0.00195       -0.45312       -0.45312        0.00000
 BRILLOUIN|    35           0.00195       -0.45312       -0.42188        0.00000
 BRILLOUIN|    36           0.00195       -0.45312       -0.39062        0.00000
 BRILLOUIN|    37           0.00195       -0.45312       -0.35938        0.00000
 BRILLOUIN|    38           0.00195       -0.45312       -0.32812        0.00000
 BRILLOUIN|    39           0.00195       -0.45312       -0.29688        0.00000
 BRILLOUIN|    40           0.00195       -0.45312       -0.26562        0.00000
 BRILLOUIN|    41           0.00195       -0.45312       -0.23438        0.00000
 BRILLOUIN|    42           0.00195       -0.45312       -0.20312        0.00000
 BRILLOUIN|    43           0.00195       -0.45312       -0.17188        0.00000
 BRILLOUIN|    44           0.00195       -0.45312       -0.14062        0.00000
 BRILLOUIN|    45           0.00195       -0.45312       -0.10938        0.00000
 BRILLOUIN|    46           0.00195       -0.45312       -0.07812        0.00000
 BRILLOUIN|    47           0.00195       -0.45312       -0.04688        0.00000
 BRILLOUIN|    48           0.00195       -0.45312       -0.01562        0.00000
 BRILLOUIN|    49           0.00195       -0.45312        0.01562        0.00000
 BRILLOUIN|    50           0.00195       -0.45312        0.04688        0.00000
 BRILLOUIN|    51           0.00195       -0.45312        0.07812        0.00000
 BRILLOUIN|    52           0.00195       -0.45312        0.10938        0.00000
 BRILLOUIN|    53           0.00195       -0.45312        0.14062        0.00000
 BRILLOUIN|    54           0.00195       -0.45312        0.17188        0.00000
 BRILLOUIN|    55           0.00195       -0.45312        0.20312        0.00000
 BRILLOUIN|    56           0.00195       -0.45312        0.23438        0.00000
 BRILLOUIN|    57           0.00195       -0.45312        0.26562        0.00000
 BRILLOUIN|    58           0.00195       -0.45312        0.29688        0.00000
 BRILLOUIN|    59           0.00195       -0.45312        0.32812        0.00000
 BRILLOUIN|    60           0.00195       -0.45312        0.35938        0.00000
 BRILLOUIN|    61           0.00195       -0.45312        0.39062        0.00000
 BRILLOUIN|    62           0.00195       -0.45312        0.42188        0.00000
 BRILLOUIN|    63           0.00195       -0.45312        0.45312        0.00000
 BRILLOUIN|    64           0.00195       -0.45312        0.48438        0.00000
 BRILLOUIN|    65           0.00195       -0.42188       -0.48438        0.00000
 BRILLOUIN|    66           0.00195       -0.42188       -0.45312        0.00000
 BRILLOUIN|    67           0.00195       -0.42188       -0.42188        0.00000
 BRILLOUIN|    68           0.00195       -0.42188       -0.39062        0.00000
 BRILLOUIN|    69           0.00195       -0.42188       -0.35938        0.00000
 BRILLOUIN|    70           0.00195       -0.42188       -0.32812        0.00000
 BRILLOUIN|    71           0.00195       -0.42188       -0.29688        0.00000
 BRILLOUIN|    72           0.00195       -0.42188       -0.26562        0.00000
 BRILLOUIN|    73           0.00195       -0.42188       -0.23438        0.00000
 BRILLOUIN|    74           0.00195       -0.42188       -0.20312        0.00000
 BRILLOUIN|    75           0.00195       -0.42188       -0.17188        0.00000
 BRILLOUIN|    76           0.00195       -0.42188       -0.14062        0.00000
 BRILLOUIN|    77           0.00195       -0.42188       -0.10938        0.00000
 BRILLOUIN|    78           0.00195       -0.42188       -0.07812        0.00000
 BRILLOUIN|    79           0.00195       -0.42188       -0.04688        0.00000
 BRILLOUIN|    80           0.00195       -0.42188       -0.01562        0.00000
 BRILLOUIN|    81           0.00195       -0.42188        0.01562        0.00000
 BRILLOUIN|    82           0.00195       -0.42188        0.04688        0.00000
 BRILLOUIN|    83           0.00195       -0.42188        0.07812        0.00000
 BRILLOUIN|    84           0.00195       -0.42188        0.10938        0.00000
 BRILLOUIN|    85           0.00195       -0.42188        0.14062        0.00000
 BRILLOUIN|    86           0.00195       -0.42188        0.17188        0.00000
 BRILLOUIN|    87           0.00195       -0.42188        0.20312        0.00000
 BRILLOUIN|    88           0.00195       -0.42188        0.23438        0.00000
 BRILLOUIN|    89           0.00195       -0.42188        0.26562        0.00000
 BRILLOUIN|    90           0.00195       -0.42188        0.29688        0.00000
 BRILLOUIN|    91           0.00195       -0.42188        0.32812        0.00000
 BRILLOUIN|    92           0.00195       -0.42188        0.35938        0.00000
 BRILLOUIN|    93           0.00195       -0.42188        0.39062        0.00000
 BRILLOUIN|    94           0.00195       -0.42188        0.42188        0.00000
 BRILLOUIN|    95           0.00195       -0.42188        0.45312        0.00000
 BRILLOUIN|    96           0.00195       -0.42188        0.48438        0.00000
 BRILLOUIN|    97           0.00195       -0.39062       -0.48438        0.00000
 BRILLOUIN|    98           0.00195       -0.39062       -0.45312        0.00000
 BRILLOUIN|    99           0.00195       -0.39062       -0.42188        0.00000
 BRILLOUIN|   100           0.00195       -0.39062       -0.39062        0.00000
 BRILLOUIN|   101           0.00195       -0.39062       -0.35938        0.00000
 BRILLOUIN|   102           0.00195       -0.39062       -0.32812        0.00000
 BRILLOUIN|   103           0.00195       -0.39062       -0.29688        0.00000
 BRILLOUIN|   104           0.00195       -0.39062       -0.26562        0.00000
 BRILLOUIN|   105           0.00195       -0.39062       -0.23438        0.00000
 BRILLOUIN|   106           0.00195       -0.39062       -0.20312        0.00000
 BRILLOUIN|   107           0.00195       -0.39062       -0.17188        0.00000
 BRILLOUIN|   108           0.00195       -0.39062       -0.14062        0.00000
 BRILLOUIN|   109           0.00195       -0.39062       -0.10938        0.00000
 BRILLOUIN|   110           0.00195       -0.39062       -0.07812        0.00000
 BRILLOUIN|   111           0.00195       -0.39062       -0.04688        0.00000
 BRILLOUIN|   112           0.00195       -0.39062       -0.01562        0.00000
 BRILLOUIN|   113           0.00195       -0.39062        0.01562        0.00000
 BRILLOUIN|   114           0.00195       -0.39062        0.04688        0.00000
 BRILLOUIN|   115           0.00195       -0.39062        0.07812        0.00000
 BRILLOUIN|   116           0.00195       -0.39062        0.10938        0.00000
 BRILLOUIN|   117           0.00195       -0.39062        0.14062        0.00000
 BRILLOUIN|   118           0.00195       -0.39062        0.17188        0.00000
 BRILLOUIN|   119           0.00195       -0.39062        0.20312        0.00000
 BRILLOUIN|   120           0.00195       -0.39062        0.23438        0.00000
 BRILLOUIN|   121           0.00195       -0.39062        0.26562        0.00000
 BRILLOUIN|   122           0.00195       -0.39062        0.29688        0.00000
 BRILLOUIN|   123           0.00195       -0.39062        0.32812        0.00000
 BRILLOUIN|   124           0.00195       -0.39062        0.35938        0.00000
 BRILLOUIN|   125           0.00195       -0.39062        0.39062        0.00000
 BRILLOUIN|   126           0.00195       -0.39062        0.42188        0.00000
 BRILLOUIN|   127           0.00195       -0.39062        0.45312        0.00000
 BRILLOUIN|   128           0.00195       -0.39062        0.48438        0.00000
 BRILLOUIN|   129           0.00195       -0.35938       -0.48438        0.00000
 BRILLOUIN|   130           0.00195       -0.35938       -0.45312        0.00000
 BRILLOUIN|   131           0.00195       -0.35938       -0.42188        0.00000
 BRILLOUIN|   132           0.00195       -0.35938       -0.39062        0.00000
 BRILLOUIN|   133           0.00195       -0.35938       -0.35938        0.00000
 BRILLOUIN|   134           0.00195       -0.35938       -0.32812        0.00000
 BRILLOUIN|   135           0.00195       -0.35938       -0.29688        0.00000
 BRILLOUIN|   136           0.00195       -0.35938       -0.26562        0.00000
 BRILLOUIN|   137           0.00195       -0.35938       -0.23438        0.00000
 BRILLOUIN|   138           0.00195       -0.35938       -0.20312        0.00000
 BRILLOUIN|   139           0.00195       -0.35938       -0.17188        0.00000
 BRILLOUIN|   140           0.00195       -0.35938       -0.14062        0.00000
 BRILLOUIN|   141           0.00195       -0.35938       -0.10938        0.00000
 BRILLOUIN|   142           0.00195       -0.35938       -0.07812        0.00000
 BRILLOUIN|   143           0.00195       -0.35938       -0.04688        0.00000
 BRILLOUIN|   144           0.00195       -0.35938       -0.01562        0.00000
 BRILLOUIN|   145           0.00195       -0.35938        0.01562        0.00000
 BRILLOUIN|   146           0.00195       -0.35938        0.04688        0.00000
 BRILLOUIN|   147           0.00195       -0.35938        0.07812        0.00000
 BRILLOUIN|   148           0.00195       -0.35938        0.10938        0.00000
 BRILLOUIN|   149           0.00195       -0.35938        0.14062        0.00000
 BRILLOUIN|   150           0.00195       -0.35938        0.17188        0.00000
 BRILLOUIN|   151           0.00195       -0.35938        0.20312        0.00000
 BRILLOUIN|   152           0.00195       -0.35938        0.23438        0.00000
 BRILLOUIN|   153           0.00195       -0.35938        0.26562        0.00000
 BRILLOUIN|   154           0.00195       -0.35938        0.29688        0.00000
 BRILLOUIN|   155           0.00195       -0.35938        0.32812        0.00000
 BRILLOUIN|   156           0.00195       -0.35938        0.35938        0.00000
 BRILLOUIN|   157           0.00195       -0.35938        0.39062        0.00000
 BRILLOUIN|   158           0.00195       -0.35938        0.42188        0.00000
 BRILLOUIN|   159           0.00195       -0.35938        0.45312        0.00000
 BRILLOUIN|   160           0.00195       -0.35938        0.48438        0.00000
 BRILLOUIN|   161           0.00195       -0.32812       -0.48438        0.00000
 BRILLOUIN|   162           0.00195       -0.32812       -0.45312        0.00000
 BRILLOUIN|   163           0.00195       -0.32812       -0.42188        0.00000
 BRILLOUIN|   164           0.00195       -0.32812       -0.39062        0.00000
 BRILLOUIN|   165           0.00195       -0.32812       -0.35938        0.00000
 BRILLOUIN|   166           0.00195       -0.32812       -0.32812        0.00000
 BRILLOUIN|   167           0.00195       -0.32812       -0.29688        0.00000
 BRILLOUIN|   168           0.00195       -0.32812       -0.26562        0.00000
 BRILLOUIN|   169           0.00195       -0.32812       -0.23438        0.00000
 BRILLOUIN|   170           0.00195       -0.32812       -0.20312        0.00000
 BRILLOUIN|   171           0.00195       -0.32812       -0.17188        0.00000
 BRILLOUIN|   172           0.00195       -0.32812       -0.14062        0.00000
 BRILLOUIN|   173           0.00195       -0.32812       -0.10938        0.00000
 BRILLOUIN|   174           0.00195       -0.32812       -0.07812        0.00000
 BRILLOUIN|   175           0.00195       -0.32812       -0.04688        0.00000
 BRILLOUIN|   176           0.00195       -0.32812       -0.01562        0.00000
 BRILLOUIN|   177           0.00195       -0.32812        0.01562        0.00000
 BRILLOUIN|   178           0.00195       -0.32812        0.04688        0.00000
 BRILLOUIN|   179           0.00195       -0.32812        0.07812        0.00000
 BRILLOUIN|   180           0.00195       -0.32812        0.10938        0.00000
 BRILLOUIN|   181           0.00195       -0.32812        0.14062        0.00000
 BRILLOUIN|   182           0.00195       -0.32812        0.17188        0.00000
 BRILLOUIN|   183           0.00195       -0.32812        0.20312        0.00000
 BRILLOUIN|   184           0.00195       -0.32812        0.23438        0.00000
 BRILLOUIN|   185           0.00195       -0.32812        0.26562        0.00000
 BRILLOUIN|   186           0.00195       -0.32812        0.29688        0.00000
 BRILLOUIN|   187           0.00195       -0.32812        0.32812        0.00000
 BRILLOUIN|   188           0.00195       -0.32812        0.35938        0.00000
 BRILLOUIN|   189           0.00195       -0.32812        0.39062        0.00000
 BRILLOUIN|   190           0.00195       -0.32812        0.42188        0.00000
 BRILLOUIN|   191           0.00195       -0.32812        0.45312        0.00000
 BRILLOUIN|   192           0.00195       -0.32812        0.48438        0.00000
 BRILLOUIN|   193           0.00195       -0.29688       -0.48438        0.00000
 BRILLOUIN|   194           0.00195       -0.29688       -0.45312        0.00000
 BRILLOUIN|   195           0.00195       -0.29688       -0.42188        0.00000
 BRILLOUIN|   196           0.00195       -0.29688       -0.39062        0.00000
 BRILLOUIN|   197           0.00195       -0.29688       -0.35938        0.00000
 BRILLOUIN|   198           0.00195       -0.29688       -0.32812        0.00000
 BRILLOUIN|   199           0.00195       -0.29688       -0.29688        0.00000
 BRILLOUIN|   200           0.00195       -0.29688       -0.26562        0.00000
 BRILLOUIN|   201           0.00195       -0.29688       -0.23438        0.00000
 BRILLOUIN|   202           0.00195       -0.29688       -0.20312        0.00000
 BRILLOUIN|   203           0.00195       -0.29688       -0.17188        0.00000
 BRILLOUIN|   204           0.00195       -0.29688       -0.14062        0.00000
 BRILLOUIN|   205           0.00195       -0.29688       -0.10938        0.00000
 BRILLOUIN|   206           0.00195       -0.29688       -0.07812        0.00000
 BRILLOUIN|   207           0.00195       -0.29688       -0.04688        0.00000
 BRILLOUIN|   208           0.00195       -0.29688       -0.01562        0.00000
 BRILLOUIN|   209           0.00195       -0.29688        0.01562        0.00000
 BRILLOUIN|   210           0.00195       -0.29688        0.04688        0.00000
 BRILLOUIN|   211           0.00195       -0.29688        0.07812        0.00000
 BRILLOUIN|   212           0.00195       -0.29688        0.10938        0.00000
 BRILLOUIN|   213           0.00195       -0.29688        0.14062        0.00000
 BRILLOUIN|   214           0.00195       -0.29688        0.17188        0.00000
 BRILLOUIN|   215           0.00195       -0.29688        0.20312        0.00000
 BRILLOUIN|   216           0.00195       -0.29688        0.23438        0.00000
 BRILLOUIN|   217           0.00195       -0.29688        0.26562        0.00000
 BRILLOUIN|   218           0.00195       -0.29688        0.29688        0.00000
 BRILLOUIN|   219           0.00195       -0.29688        0.32812        0.00000
 BRILLOUIN|   220           0.00195       -0.29688        0.35938        0.00000
 BRILLOUIN|   221           0.00195       -0.29688        0.39062        0.00000
 BRILLOUIN|   222           0.00195       -0.29688        0.42188        0.00000
 BRILLOUIN|   223           0.00195       -0.29688        0.45312        0.00000
 BRILLOUIN|   224           0.00195       -0.29688        0.48438        0.00000
 BRILLOUIN|   225           0.00195       -0.26562       -0.48438        0.00000
 BRILLOUIN|   226           0.00195       -0.26562       -0.45312        0.00000
 BRILLOUIN|   227           0.00195       -0.26562       -0.42188        0.00000
 BRILLOUIN|   228           0.00195       -0.26562       -0.39062        0.00000
 BRILLOUIN|   229           0.00195       -0.26562       -0.35938        0.00000
 BRILLOUIN|   230           0.00195       -0.26562       -0.32812        0.00000
 BRILLOUIN|   231           0.00195       -0.26562       -0.29688        0.00000
 BRILLOUIN|   232           0.00195       -0.26562       -0.26562        0.00000
 BRILLOUIN|   233           0.00195       -0.26562       -0.23438        0.00000
 BRILLOUIN|   234           0.00195       -0.26562       -0.20312        0.00000
 BRILLOUIN|   235           0.00195       -0.26562       -0.17188        0.00000
 BRILLOUIN|   236           0.00195       -0.26562       -0.14062        0.00000
 BRILLOUIN|   237           0.00195       -0.26562       -0.10938        0.00000
 BRILLOUIN|   238           0.00195       -0.26562       -0.07812        0.00000
 BRILLOUIN|   239           0.00195       -0.26562       -0.04688        0.00000
 BRILLOUIN|   240           0.00195       -0.26562       -0.01562        0.00000
 BRILLOUIN|   241           0.00195       -0.26562        0.01562        0.00000
 BRILLOUIN|   242           0.00195       -0.26562        0.04688        0.00000
 BRILLOUIN|   243           0.00195       -0.26562        0.07812        0.00000
 BRILLOUIN|   244           0.00195       -0.26562        0.10938        0.00000
 BRILLOUIN|   245           0.00195       -0.26562        0.14062        0.00000
 BRILLOUIN|   246           0.00195       -0.26562        0.17188        0.00000
 BRILLOUIN|   247           0.00195       -0.26562        0.20312        0.00000
 BRILLOUIN|   248           0.00195       -0.26562        0.23438        0.00000
 BRILLOUIN|   249           0.00195       -0.26562        0.26562        0.00000
 BRILLOUIN|   250           0.00195       -0.26562        0.29688        0.00000
 BRILLOUIN|   251           0.00195       -0.26562        0.32812        0.00000
 BRILLOUIN|   252           0.00195       -0.26562        0.35938        0.00000
 BRILLOUIN|   253           0.00195       -0.26562        0.39062        0.00000
 BRILLOUIN|   254           0.00195       -0.26562        0.42188        0.00000
 BRILLOUIN|   255           0.00195       -0.26562        0.45312        0.00000
 BRILLOUIN|   256           0.00195       -0.26562        0.48438        0.00000
 BRILLOUIN|   257           0.00195       -0.23438       -0.48438        0.00000
 BRILLOUIN|   258           0.00195       -0.23438       -0.45312        0.00000
 BRILLOUIN|   259           0.00195       -0.23438       -0.42188        0.00000
 BRILLOUIN|   260           0.00195       -0.23438       -0.39062        0.00000
 BRILLOUIN|   261           0.00195       -0.23438       -0.35938        0.00000
 BRILLOUIN|   262           0.00195       -0.23438       -0.32812        0.00000
 BRILLOUIN|   263           0.00195       -0.23438       -0.29688        0.00000
 BRILLOUIN|   264           0.00195       -0.23438       -0.26562        0.00000
 BRILLOUIN|   265           0.00195       -0.23438       -0.23438        0.00000
 BRILLOUIN|   266           0.00195       -0.23438       -0.20312        0.00000
 BRILLOUIN|   267           0.00195       -0.23438       -0.17188        0.00000
 BRILLOUIN|   268           0.00195       -0.23438       -0.14062        0.00000
 BRILLOUIN|   269           0.00195       -0.23438       -0.10938        0.00000
 BRILLOUIN|   270           0.00195       -0.23438       -0.07812        0.00000
 BRILLOUIN|   271           0.00195       -0.23438       -0.04688        0.00000
 BRILLOUIN|   272           0.00195       -0.23438       -0.01562        0.00000
 BRILLOUIN|   273           0.00195       -0.23438        0.01562        0.00000
 BRILLOUIN|   274           0.00195       -0.23438        0.04688        0.00000
 BRILLOUIN|   275           0.00195       -0.23438        0.07812        0.00000
 BRILLOUIN|   276           0.00195       -0.23438        0.10938        0.00000
 BRILLOUIN|   277           0.00195       -0.23438        0.14062        0.00000
 BRILLOUIN|   278           0.00195       -0.23438        0.17188        0.00000
 BRILLOUIN|   279           0.00195       -0.23438        0.20312        0.00000
 BRILLOUIN|   280           0.00195       -0.23438        0.23438        0.00000
 BRILLOUIN|   281           0.00195       -0.23438        0.26562        0.00000
 BRILLOUIN|   282           0.00195       -0.23438        0.29688        0.00000
 BRILLOUIN|   283           0.00195       -0.23438        0.32812        0.00000
 BRILLOUIN|   284           0.00195       -0.23438        0.35938        0.00000
 BRILLOUIN|   285           0.00195       -0.23438        0.39062        0.00000
 BRILLOUIN|   286           0.00195       -0.23438        0.42188        0.00000
 BRILLOUIN|   287           0.00195       -0.23438        0.45312        0.00000
 BRILLOUIN|   288           0.00195       -0.23438        0.48438        0.00000
 BRILLOUIN|   289           0.00195       -0.20312       -0.48438        0.00000
 BRILLOUIN|   290           0.00195       -0.20312       -0.45312        0.00000
 BRILLOUIN|   291           0.00195       -0.20312       -0.42188        0.00000
 BRILLOUIN|   292           0.00195       -0.20312       -0.39062        0.00000
 BRILLOUIN|   293           0.00195       -0.20312       -0.35938        0.00000
 BRILLOUIN|   294           0.00195       -0.20312       -0.32812        0.00000
 BRILLOUIN|   295           0.00195       -0.20312       -0.29688        0.00000
 BRILLOUIN|   296           0.00195       -0.20312       -0.26562        0.00000
 BRILLOUIN|   297           0.00195       -0.20312       -0.23438        0.00000
 BRILLOUIN|   298           0.00195       -0.20312       -0.20312        0.00000
 BRILLOUIN|   299           0.00195       -0.20312       -0.17188        0.00000
 BRILLOUIN|   300           0.00195       -0.20312       -0.14062        0.00000
 BRILLOUIN|   301           0.00195       -0.20312       -0.10938        0.00000
 BRILLOUIN|   302           0.00195       -0.20312       -0.07812        0.00000
 BRILLOUIN|   303           0.00195       -0.20312       -0.04688        0.00000
 BRILLOUIN|   304           0.00195       -0.20312       -0.01562        0.00000
 BRILLOUIN|   305           0.00195       -0.20312        0.01562        0.00000
 BRILLOUIN|   306           0.00195       -0.20312        0.04688        0.00000
 BRILLOUIN|   307           0.00195       -0.20312        0.07812        0.00000
 BRILLOUIN|   308           0.00195       -0.20312        0.10938        0.00000
 BRILLOUIN|   309           0.00195       -0.20312        0.14062        0.00000
 BRILLOUIN|   310           0.00195       -0.20312        0.17188        0.00000
 BRILLOUIN|   311           0.00195       -0.20312        0.20312        0.00000
 BRILLOUIN|   312           0.00195       -0.20312        0.23438        0.00000
 BRILLOUIN|   313           0.00195       -0.20312        0.26562        0.00000
 BRILLOUIN|   314           0.00195       -0.20312        0.29688        0.00000
 BRILLOUIN|   315           0.00195       -0.20312        0.32812        0.00000
 BRILLOUIN|   316           0.00195       -0.20312        0.35938        0.00000
 BRILLOUIN|   317           0.00195       -0.20312        0.39062        0.00000
 BRILLOUIN|   318           0.00195       -0.20312        0.42188        0.00000
 BRILLOUIN|   319           0.00195       -0.20312        0.45312        0.00000
 BRILLOUIN|   320           0.00195       -0.20312        0.48438        0.00000
 BRILLOUIN|   321           0.00195       -0.17188       -0.48438        0.00000
 BRILLOUIN|   322           0.00195       -0.17188       -0.45312        0.00000
 BRILLOUIN|   323           0.00195       -0.17188       -0.42188        0.00000
 BRILLOUIN|   324           0.00195       -0.17188       -0.39062        0.00000
 BRILLOUIN|   325           0.00195       -0.17188       -0.35938        0.00000
 BRILLOUIN|   326           0.00195       -0.17188       -0.32812        0.00000
 BRILLOUIN|   327           0.00195       -0.17188       -0.29688        0.00000
 BRILLOUIN|   328           0.00195       -0.17188       -0.26562        0.00000
 BRILLOUIN|   329           0.00195       -0.17188       -0.23438        0.00000
 BRILLOUIN|   330           0.00195       -0.17188       -0.20312        0.00000
 BRILLOUIN|   331           0.00195       -0.17188       -0.17188        0.00000
 BRILLOUIN|   332           0.00195       -0.17188       -0.14062        0.00000
 BRILLOUIN|   333           0.00195       -0.17188       -0.10938        0.00000
 BRILLOUIN|   334           0.00195       -0.17188       -0.07812        0.00000
 BRILLOUIN|   335           0.00195       -0.17188       -0.04688        0.00000
 BRILLOUIN|   336           0.00195       -0.17188       -0.01562        0.00000
 BRILLOUIN|   337           0.00195       -0.17188        0.01562        0.00000
 BRILLOUIN|   338           0.00195       -0.17188        0.04688        0.00000
 BRILLOUIN|   339           0.00195       -0.17188        0.07812        0.00000
 BRILLOUIN|   340           0.00195       -0.17188        0.10938        0.00000
 BRILLOUIN|   341           0.00195       -0.17188        0.14062        0.00000
 BRILLOUIN|   342           0.00195       -0.17188        0.17188        0.00000
 BRILLOUIN|   343           0.00195       -0.17188        0.20312        0.00000
 BRILLOUIN|   344           0.00195       -0.17188        0.23438        0.00000
 BRILLOUIN|   345           0.00195       -0.17188        0.26562        0.00000
 BRILLOUIN|   346           0.00195       -0.17188        0.29688        0.00000
 BRILLOUIN|   347           0.00195       -0.17188        0.32812        0.00000
 BRILLOUIN|   348           0.00195       -0.17188        0.35938        0.00000
 BRILLOUIN|   349           0.00195       -0.17188        0.39062        0.00000
 BRILLOUIN|   350           0.00195       -0.17188        0.42188        0.00000
 BRILLOUIN|   351           0.00195       -0.17188        0.45312        0.00000
 BRILLOUIN|   352           0.00195       -0.17188        0.48438        0.00000
 BRILLOUIN|   353           0.00195       -0.14062       -0.48438        0.00000
 BRILLOUIN|   354           0.00195       -0.14062       -0.45312        0.00000
 BRILLOUIN|   355           0.00195       -0.14062       -0.42188        0.00000
 BRILLOUIN|   356           0.00195       -0.14062       -0.39062        0.00000
 BRILLOUIN|   357           0.00195       -0.14062       -0.35938        0.00000
 BRILLOUIN|   358           0.00195       -0.14062       -0.32812        0.00000
 BRILLOUIN|   359           0.00195       -0.14062       -0.29688        0.00000
 BRILLOUIN|   360           0.00195       -0.14062       -0.26562        0.00000
 BRILLOUIN|   361           0.00195       -0.14062       -0.23438        0.00000
 BRILLOUIN|   362           0.00195       -0.14062       -0.20312        0.00000
 BRILLOUIN|   363           0.00195       -0.14062       -0.17188        0.00000
 BRILLOUIN|   364           0.00195       -0.14062       -0.14062        0.00000
 BRILLOUIN|   365           0.00195       -0.14062       -0.10938        0.00000
 BRILLOUIN|   366           0.00195       -0.14062       -0.07812        0.00000
 BRILLOUIN|   367           0.00195       -0.14062       -0.04688        0.00000
 BRILLOUIN|   368           0.00195       -0.14062       -0.01562        0.00000
 BRILLOUIN|   369           0.00195       -0.14062        0.01562        0.00000
 BRILLOUIN|   370           0.00195       -0.14062        0.04688        0.00000
 BRILLOUIN|   371           0.00195       -0.14062        0.07812        0.00000
 BRILLOUIN|   372           0.00195       -0.14062        0.10938        0.00000
 BRILLOUIN|   373           0.00195       -0.14062        0.14062        0.00000
 BRILLOUIN|   374           0.00195       -0.14062        0.17188        0.00000
 BRILLOUIN|   375           0.00195       -0.14062        0.20312        0.00000
 BRILLOUIN|   376           0.00195       -0.14062        0.23438        0.00000
 BRILLOUIN|   377           0.00195       -0.14062        0.26562        0.00000
 BRILLOUIN|   378           0.00195       -0.14062        0.29688        0.00000
 BRILLOUIN|   379           0.00195       -0.14062        0.32812        0.00000
 BRILLOUIN|   380           0.00195       -0.14062        0.35938        0.00000
 BRILLOUIN|   381           0.00195       -0.14062        0.39062        0.00000
 BRILLOUIN|   382           0.00195       -0.14062        0.42188        0.00000
 BRILLOUIN|   383           0.00195       -0.14062        0.45312        0.00000
 BRILLOUIN|   384           0.00195       -0.14062        0.48438        0.00000
 BRILLOUIN|   385           0.00195       -0.10938       -0.48438        0.00000
 BRILLOUIN|   386           0.00195       -0.10938       -0.45312        0.00000
 BRILLOUIN|   387           0.00195       -0.10938       -0.42188        0.00000
 BRILLOUIN|   388           0.00195       -0.10938       -0.39062        0.00000
 BRILLOUIN|   389           0.00195       -0.10938       -0.35938        0.00000
 BRILLOUIN|   390           0.00195       -0.10938       -0.32812        0.00000
 BRILLOUIN|   391           0.00195       -0.10938       -0.29688        0.00000
 BRILLOUIN|   392           0.00195       -0.10938       -0.26562        0.00000
 BRILLOUIN|   393           0.00195       -0.10938       -0.23438        0.00000
 BRILLOUIN|   394           0.00195       -0.10938       -0.20312        0.00000
 BRILLOUIN|   395           0.00195       -0.10938       -0.17188        0.00000
 BRILLOUIN|   396           0.00195       -0.10938       -0.14062        0.00000
 BRILLOUIN|   397           0.00195       -0.10938       -0.10938        0.00000
 BRILLOUIN|   398           0.00195       -0.10938       -0.07812        0.00000
 BRILLOUIN|   399           0.00195       -0.10938       -0.04688        0.00000
 BRILLOUIN|   400           0.00195       -0.10938       -0.01562        0.00000
 BRILLOUIN|   401           0.00195       -0.10938        0.01562        0.00000
 BRILLOUIN|   402           0.00195       -0.10938        0.04688        0.00000
 BRILLOUIN|   403           0.00195       -0.10938        0.07812        0.00000
 BRILLOUIN|   404           0.00195       -0.10938        0.10938        0.00000
 BRILLOUIN|   405           0.00195       -0.10938        0.14062        0.00000
 BRILLOUIN|   406           0.00195       -0.10938        0.17188        0.00000
 BRILLOUIN|   407           0.00195       -0.10938        0.20312        0.00000
 BRILLOUIN|   408           0.00195       -0.10938        0.23438        0.00000
 BRILLOUIN|   409           0.00195       -0.10938        0.26562        0.00000
 BRILLOUIN|   410           0.00195       -0.10938        0.29688        0.00000
 BRILLOUIN|   411           0.00195       -0.10938        0.32812        0.00000
 BRILLOUIN|   412           0.00195       -0.10938        0.35938        0.00000
 BRILLOUIN|   413           0.00195       -0.10938        0.39062        0.00000
 BRILLOUIN|   414           0.00195       -0.10938        0.42188        0.00000
 BRILLOUIN|   415           0.00195       -0.10938        0.45312        0.00000
 BRILLOUIN|   416           0.00195       -0.10938        0.48438        0.00000
 BRILLOUIN|   417           0.00195       -0.07812       -0.48438        0.00000
 BRILLOUIN|   418           0.00195       -0.07812       -0.45312        0.00000
 BRILLOUIN|   419           0.00195       -0.07812       -0.42188        0.00000
 BRILLOUIN|   420           0.00195       -0.07812       -0.39062        0.00000
 BRILLOUIN|   421           0.00195       -0.07812       -0.35938        0.00000
 BRILLOUIN|   422           0.00195       -0.07812       -0.32812        0.00000
 BRILLOUIN|   423           0.00195       -0.07812       -0.29688        0.00000
 BRILLOUIN|   424           0.00195       -0.07812       -0.26562        0.00000
 BRILLOUIN|   425           0.00195       -0.07812       -0.23438        0.00000
 BRILLOUIN|   426           0.00195       -0.07812       -0.20312        0.00000
 BRILLOUIN|   427           0.00195       -0.07812       -0.17188        0.00000
 BRILLOUIN|   428           0.00195       -0.07812       -0.14062        0.00000
 BRILLOUIN|   429           0.00195       -0.07812       -0.10938        0.00000
 BRILLOUIN|   430           0.00195       -0.07812       -0.07812        0.00000
 BRILLOUIN|   431           0.00195       -0.07812       -0.04688        0.00000
 BRILLOUIN|   432           0.00195       -0.07812       -0.01562        0.00000
 BRILLOUIN|   433           0.00195       -0.07812        0.01562        0.00000
 BRILLOUIN|   434           0.00195       -0.07812        0.04688        0.00000
 BRILLOUIN|   435           0.00195       -0.07812        0.07812        0.00000
 BRILLOUIN|   436           0.00195       -0.07812        0.10938        0.00000
 BRILLOUIN|   437           0.00195       -0.07812        0.14062        0.00000
 BRILLOUIN|   438           0.00195       -0.07812        0.17188        0.00000
 BRILLOUIN|   439           0.00195       -0.07812        0.20312        0.00000
 BRILLOUIN|   440           0.00195       -0.07812        0.23438        0.00000
 BRILLOUIN|   441           0.00195       -0.07812        0.26562        0.00000
 BRILLOUIN|   442           0.00195       -0.07812        0.29688        0.00000
 BRILLOUIN|   443           0.00195       -0.07812        0.32812        0.00000
 BRILLOUIN|   444           0.00195       -0.07812        0.35938        0.00000
 BRILLOUIN|   445           0.00195       -0.07812        0.39062        0.00000
 BRILLOUIN|   446           0.00195       -0.07812        0.42188        0.00000
 BRILLOUIN|   447           0.00195       -0.07812        0.45312        0.00000
 BRILLOUIN|   448           0.00195       -0.07812        0.48438        0.00000
 BRILLOUIN|   449           0.00195       -0.04688       -0.48438        0.00000
 BRILLOUIN|   450           0.00195       -0.04688       -0.45312        0.00000
 BRILLOUIN|   451           0.00195       -0.04688       -0.42188        0.00000
 BRILLOUIN|   452           0.00195       -0.04688       -0.39062        0.00000
 BRILLOUIN|   453           0.00195       -0.04688       -0.35938        0.00000
 BRILLOUIN|   454           0.00195       -0.04688       -0.32812        0.00000
 BRILLOUIN|   455           0.00195       -0.04688       -0.29688        0.00000
 BRILLOUIN|   456           0.00195       -0.04688       -0.26562        0.00000
 BRILLOUIN|   457           0.00195       -0.04688       -0.23438        0.00000
 BRILLOUIN|   458           0.00195       -0.04688       -0.20312        0.00000
 BRILLOUIN|   459           0.00195       -0.04688       -0.17188        0.00000
 BRILLOUIN|   460           0.00195       -0.04688       -0.14062        0.00000
 BRILLOUIN|   461           0.00195       -0.04688       -0.10938        0.00000
 BRILLOUIN|   462           0.00195       -0.04688       -0.07812        0.00000
 BRILLOUIN|   463           0.00195       -0.04688       -0.04688        0.00000
 BRILLOUIN|   464           0.00195       -0.04688       -0.01562        0.00000
 BRILLOUIN|   465           0.00195       -0.04688        0.01562        0.00000
 BRILLOUIN|   466           0.00195       -0.04688        0.04688        0.00000
 BRILLOUIN|   467           0.00195       -0.04688        0.07812        0.00000
 BRILLOUIN|   468           0.00195       -0.04688        0.10938        0.00000
 BRILLOUIN|   469           0.00195       -0.04688        0.14062        0.00000
 BRILLOUIN|   470           0.00195       -0.04688        0.17188        0.00000
 BRILLOUIN|   471           0.00195       -0.04688        0.20312        0.00000
 BRILLOUIN|   472           0.00195       -0.04688        0.23438        0.00000
 BRILLOUIN|   473           0.00195       -0.04688        0.26562        0.00000
 BRILLOUIN|   474           0.00195       -0.04688        0.29688        0.00000
 BRILLOUIN|   475           0.00195       -0.04688        0.32812        0.00000
 BRILLOUIN|   476           0.00195       -0.04688        0.35938        0.00000
 BRILLOUIN|   477           0.00195       -0.04688        0.39062        0.00000
 BRILLOUIN|   478           0.00195       -0.04688        0.42188        0.00000
 BRILLOUIN|   479           0.00195       -0.04688        0.45312        0.00000
 BRILLOUIN|   480           0.00195       -0.04688        0.48438        0.00000
 BRILLOUIN|   481           0.00195       -0.01562       -0.48438        0.00000
 BRILLOUIN|   482           0.00195       -0.01562       -0.45312        0.00000
 BRILLOUIN|   483           0.00195       -0.01562       -0.42188        0.00000
 BRILLOUIN|   484           0.00195       -0.01562       -0.39062        0.00000
 BRILLOUIN|   485           0.00195       -0.01562       -0.35938        0.00000
 BRILLOUIN|   486           0.00195       -0.01562       -0.32812        0.00000
 BRILLOUIN|   487           0.00195       -0.01562       -0.29688        0.00000
 BRILLOUIN|   488           0.00195       -0.01562       -0.26562        0.00000
 BRILLOUIN|   489           0.00195       -0.01562       -0.23438        0.00000
 BRILLOUIN|   490           0.00195       -0.01562       -0.20312        0.00000
 BRILLOUIN|   491           0.00195       -0.01562       -0.17188        0.00000
 BRILLOUIN|   492           0.00195       -0.01562       -0.14062        0.00000
 BRILLOUIN|   493           0.00195       -0.01562       -0.10938        0.00000
 BRILLOUIN|   494           0.00195       -0.01562       -0.07812        0.00000
 BRILLOUIN|   495           0.00195       -0.01562       -0.04688        0.00000
 BRILLOUIN|   496           0.00195       -0.01562       -0.01562        0.00000
 BRILLOUIN|   497           0.00195       -0.01562        0.01562        0.00000
 BRILLOUIN|   498           0.00195       -0.01562        0.04688        0.00000
 BRILLOUIN|   499           0.00195       -0.01562        0.07812        0.00000
 BRILLOUIN|   500           0.00195       -0.01562        0.10938        0.00000
 BRILLOUIN|   501           0.00195       -0.01562        0.14062        0.00000
 BRILLOUIN|   502           0.00195       -0.01562        0.17188        0.00000
 BRILLOUIN|   503           0.00195       -0.01562        0.20312        0.00000
 BRILLOUIN|   504           0.00195       -0.01562        0.23438        0.00000
 BRILLOUIN|   505           0.00195       -0.01562        0.26562        0.00000
 BRILLOUIN|   506           0.00195       -0.01562        0.29688        0.00000
 BRILLOUIN|   507           0.00195       -0.01562        0.32812        0.00000
 BRILLOUIN|   508           0.00195       -0.01562        0.35938        0.00000
 BRILLOUIN|   509           0.00195       -0.01562        0.39062        0.00000
 BRILLOUIN|   510           0.00195       -0.01562        0.42188        0.00000
 BRILLOUIN|   511           0.00195       -0.01562        0.45312        0.00000
 BRILLOUIN|   512           0.00195       -0.01562        0.48438        0.00000
 *******************************************************************************

 *******************************************************************************
 *******************************************************************************
 **                                                                           **
 **     #####                         ##              ##                      **
 **    ##   ##            ##          ##              ##                      **
 **   ##     ##                       ##            ######                    **
 **   ##     ##  ##   ##  ##   #####  ##  ##   ####   ##    #####    #####    **
 **   ##     ##  ##   ##  ##  ##      ## ##   ##      ##   ##   ##  ##   ##   **
 **   ##  ## ##  ##   ##  ##  ##      ####     ###    ##   ######   ######    **
 **    ##  ###   ##   ##  ##  ##      ## ##      ##   ##   ##       ##        **
 **     #######   #####   ##   #####  ##  ##  ####    ##    #####   ##        **
 **           ##                                                    ##        **
 **                                                                           **
 **                                                ... make the atoms dance   **
 **                                                                           **
 **            Copyright (C) by CP2K developers group (2000-2025)             **
 **                      J. Chem. Phys. 152, 194103 (2020)                    **
 **                                                                           **
 *******************************************************************************

 DFT| Spin restricted Kohn-Sham (RKS) calculation                            RKS
 DFT| Multiplicity                                                             1
 DFT| Number of spin states                                                    1
 DFT| Charge                                                                   0
 DFT| Self-interaction correction (SIC)                                       NO
 DFT| Cutoffs: density                                              1.000000E-10
 DFT|          gradient                                             1.000000E-10
 DFT|          tau                                                  1.000000E-10
 DFT|          cutoff_smoothing_range                               0.000000E+00
 DFT| XC density smoothing                                                  NONE
 DFT| XC derivatives                                                          PW

 FUNCTIONAL| PBE:
 FUNCTIONAL| J.P.Perdew, K.Burke, M.Ernzerhof, Phys. Rev. Letter, vol. 77, n 18,
 FUNCTIONAL|  pp. 3865-3868, (1996) {spin unpolarized}                          


 QS| Method:                                                                GAPW
 QS| Density plane wave grid type                        NON-SPHERICAL FULLSPACE
 QS| Number of grid levels:                                                    4
 QS| Density cutoff [a.u.]:                                                250.0
 QS| Multi grid cutoff [a.u.]: 1) grid level                               250.0
 QS|                           2) grid level                                83.3
 QS|                           3) grid level                                27.8
 QS|                           4) grid level                                 9.3
 QS| Grid level progression factor:                                          3.0
 QS| Relative density cutoff [a.u.]:                                        50.0
 QS| Interaction thresholds: eps_pgf_orb:                                1.0E-12
 QS|                         eps_filter_matrix:                          0.0E+00
 QS|                         eps_core_charge:                            1.0E-14
 QS|                         eps_rho_gspace:                             1.0E-12
 QS|                         eps_rho_rspace:                             1.0E-12
 QS|                         eps_gvg_rspace:                             1.0E-06
 QS|                         eps_ppl:                                    1.0E-02
 QS|                         eps_ppnl:                                   1.0E-08
 QS| GAPW|      One center basis from orbital basis primitives
 QS| GAPW|                   eps_fit:                                    1.0E-04
 QS| GAPW|                   eps_iso:                                    1.0E-12
 QS| GAPW|                   eps_svd:                                    1.0E-08
 QS| GAPW|                   eps_cpc:                                    1.0E-12
 QS| GAPW|   atom-r-grid: quadrature:                                     GC_LOG
 QS| GAPW|      atom-s-grid:  max l :                                          6
 QS| GAPW|      max_l_rho0 :                                                   2
 QS| GAPW|      At least one kind is NOT PAW, i.e. it has only soft AO 
 QS| GAPW|      The NOT PAW atoms are treated fully GPW


 ATOMIC KIND INFORMATION

  1. Atomic kind: W                                     Number of atoms:       1

     Orbital Basis Set                                  TZV2P-MOLOPT-PBE-GTH-q14

       Number of orbital shell sets:                                           1
       Number of orbital shells:                                              12
       Number of primitive Cartesian functions:                                6
       Number of Cartesian basis functions:                                   51
       Number of spherical basis functions:                                   42
       Norm type:                                                              2

       Normalised Cartesian orbitals:

                        Set   Shell   Orbital            Exponent    Coefficient

                          1       1    2s                3.202637       0.390454
                                                         2.970404       0.395569
                                                         1.054481      -0.613576
                                                         0.447462      -0.093621
                                                         0.172572      -0.034869
                                                         0.057796      -0.016637

                          1       2    3s                3.202637      -0.614093
                                                         2.970404       0.668497
                                                         1.054481      -0.142499
                                                         0.447462      -0.095130
                                                         0.172572       0.077989
                                                         0.057796       0.068808

                          1       3    4s                3.202637       1.092716
                                                         2.970404      -0.653617
                                                         1.054481       0.053652
                                                         0.447462       0.074208
                                                         0.172572      -0.385158
                                                         0.057796       0.131678

                          1       4    5s                3.202637       1.654250
                                                         2.970404      -1.282739
                                                         1.054481      -0.160143
                                                         0.447462      -0.015921
                                                         0.172572       0.144478
                                                         0.057796       0.032600

                          1       5    3px               3.202637       6.040412
                                                         2.970404      -4.932675
                                                         1.054481      -0.974837
                                                         0.447462      -0.208773
                                                         0.172572      -0.008465
                                                         0.057796      -0.000597
                          1       5    3py               3.202637       6.040412
                                                         2.970404      -4.932675
                                                         1.054481      -0.974837
                                                         0.447462      -0.208773
                                                         0.172572      -0.008465
                                                         0.057796      -0.000597
                          1       5    3pz               3.202637       6.040412
                                                         2.970404      -4.932675
                                                         1.054481      -0.974837
                                                         0.447462      -0.208773
                                                         0.172572      -0.008465
                                                         0.057796      -0.000597

                          1       6    4px               3.202637      -0.456554
                                                         2.970404       0.501115
                                                         1.054481      -0.482085
                                                         0.447462       0.002190
                                                         0.172572       0.123686
                                                         0.057796       0.014461
                          1       6    4py               3.202637      -0.456554
                                                         2.970404       0.501115
                                                         1.054481      -0.482085
                                                         0.447462       0.002190
                                                         0.172572       0.123686
                                                         0.057796       0.014461
                          1       6    4pz               3.202637      -0.456554
                                                         2.970404       0.501115
                                                         1.054481      -0.482085
                                                         0.447462       0.002190
                                                         0.172572       0.123686
                                                         0.057796       0.014461

                          1       7    5px               3.202637       0.341146
                                                         2.970404      -0.173550
                                                         1.054481       0.501233
                                                         0.447462      -0.160487
                                                         0.172572      -0.068662
                                                         0.057796       0.050806
                          1       7    5py               3.202637       0.341146
                                                         2.970404      -0.173550
                                                         1.054481       0.501233
                                                         0.447462      -0.160487
                                                         0.172572      -0.068662
                                                         0.057796       0.050806
                          1       7    5pz               3.202637       0.341146
                                                         2.970404      -0.173550
                                                         1.054481       0.501233
                                                         0.447462      -0.160487
                                                         0.172572      -0.068662
                                                         0.057796       0.050806

                          1       8    4dx2              3.202637      -1.177086
                                                         2.970404       1.305064
                                                         1.054481       0.508845
                                                         0.447462       0.161140
                                                         0.172572       0.030785
                                                         0.057796       0.001694
                          1       8    4dxy              3.202637      -2.038772
                                                         2.970404       2.260437
                                                         1.054481       0.881345
                                                         0.447462       0.279102
                                                         0.172572       0.053320
                                                         0.057796       0.002935
                          1       8    4dxz              3.202637      -2.038772
                                                         2.970404       2.260437
                                                         1.054481       0.881345
                                                         0.447462       0.279102
                                                         0.172572       0.053320
                                                         0.057796       0.002935
                          1       8    4dy2              3.202637      -1.177086
                                                         2.970404       1.305064
                                                         1.054481       0.508845
                                                         0.447462       0.161140
                                                         0.172572       0.030785
                                                         0.057796       0.001694
                          1       8    4dyz              3.202637      -2.038772
                                                         2.970404       2.260437
                                                         1.054481       0.881345
                                                         0.447462       0.279102
                                                         0.172572       0.053320
                                                         0.057796       0.002935
                          1       8    4dz2              3.202637      -1.177086
                                                         2.970404       1.305064
                                                         1.054481       0.508845
                                                         0.447462       0.161140
                                                         0.172572       0.030785
                                                         0.057796       0.001694

                          1       9    5dx2              3.202637       1.244992
                                                         2.970404      -1.375352
                                                         1.054481      -0.529259
                                                         0.447462      -0.172753
                                                         0.172572       0.033139
                                                         0.057796       0.007534
                          1       9    5dxy              3.202637       2.156390
                                                         2.970404      -2.382180
                                                         1.054481      -0.916703
                                                         0.447462      -0.299217
                                                         0.172572       0.057398
                                                         0.057796       0.013049
                          1       9    5dxz              3.202637       2.156390
                                                         2.970404      -2.382180
                                                         1.054481      -0.916703
                                                         0.447462      -0.299217
                                                         0.172572       0.057398
                                                         0.057796       0.013049
                          1       9    5dy2              3.202637       1.244992
                                                         2.970404      -1.375352
                                                         1.054481      -0.529259
                                                         0.447462      -0.172753
                                                         0.172572       0.033139
                                                         0.057796       0.007534
                          1       9    5dyz              3.202637       2.156390
                                                         2.970404      -2.382180
                                                         1.054481      -0.916703
                                                         0.447462      -0.299217
                                                         0.172572       0.057398
                                                         0.057796       0.013049
                          1       9    5dz2              3.202637       1.244992
                                                         2.970404      -1.375352
                                                         1.054481      -0.529259
                                                         0.447462      -0.172753
                                                         0.172572       0.033139
                                                         0.057796       0.007534

                          1      10    6dx2              3.202637      -1.576231
                                                         2.970404       1.580038
                                                         1.054481       0.514593
                                                         0.447462       0.187766
                                                         0.172572      -0.090633
                                                         0.057796       0.013897
                          1      10    6dxy              3.202637      -2.730113
                                                         2.970404       2.736707
                                                         1.054481       0.891302
                                                         0.447462       0.325220
                                                         0.172572      -0.156981
                                                         0.057796       0.024070
                          1      10    6dxz              3.202637      -2.730113
                                                         2.970404       2.736707
                                                         1.054481       0.891302
                                                         0.447462       0.325220
                                                         0.172572      -0.156981
                                                         0.057796       0.024070
                          1      10    6dy2              3.202637      -1.576231
                                                         2.970404       1.580038
                                                         1.054481       0.514593
                                                         0.447462       0.187766
                                                         0.172572      -0.090633
                                                         0.057796       0.013897
                          1      10    6dyz              3.202637      -2.730113
                                                         2.970404       2.736707
                                                         1.054481       0.891302
                                                         0.447462       0.325220
                                                         0.172572      -0.156981
                                                         0.057796       0.024070
                          1      10    6dz2              3.202637      -1.576231
                                                         2.970404       1.580038
                                                         1.054481       0.514593
                                                         0.447462       0.187766
                                                         0.172572      -0.090633
                                                         0.057796       0.013897

                          1      11    5fx3              3.202637       0.175204
                                                         2.970404       0.110416
                                                         1.054481      -0.252513
                                                         0.447462      -0.154881
                                                         0.172572      -0.010571
                                                         0.057796       0.000077
                          1      11    5fx2y             3.202637       0.391768
                                                         2.970404       0.246898
                                                         1.054481      -0.564636
                                                         0.447462      -0.346325
                                                         0.172572      -0.023638
                                                         0.057796       0.000172
                          1      11    5fx2z             3.202637       0.391768
                                                         2.970404       0.246898
                                                         1.054481      -0.564636
                                                         0.447462      -0.346325
                                                         0.172572      -0.023638
                                                         0.057796       0.000172
                          1      11    5fxy2             3.202637       0.391768
                                                         2.970404       0.246898
                                                         1.054481      -0.564636
                                                         0.447462      -0.346325
                                                         0.172572      -0.023638
                                                         0.057796       0.000172
                          1      11    5fxyz             3.202637       0.678562
                                                         2.970404       0.427640
                                                         1.054481      -0.977979
                                                         0.447462      -0.599852
                                                         0.172572      -0.040941
                                                         0.057796       0.000298
                          1      11    5fxz2             3.202637       0.391768
                                                         2.970404       0.246898
                                                         1.054481      -0.564636
                                                         0.447462      -0.346325
                                                         0.172572      -0.023638
                                                         0.057796       0.000172
                          1      11    5fy3              3.202637       0.175204
                                                         2.970404       0.110416
                                                         1.054481      -0.252513
                                                         0.447462      -0.154881
                                                         0.172572      -0.010571
                                                         0.057796       0.000077
                          1      11    5fy2z             3.202637       0.391768
                                                         2.970404       0.246898
                                                         1.054481      -0.564636
                                                         0.447462      -0.346325
                                                         0.172572      -0.023638
                                                         0.057796       0.000172
                          1      11    5fyz2             3.202637       0.391768
                                                         2.970404       0.246898
                                                         1.054481      -0.564636
                                                         0.447462      -0.346325
                                                         0.172572      -0.023638
                                                         0.057796       0.000172
                          1      11    5fz3              3.202637       0.175204
                                                         2.970404       0.110416
                                                         1.054481      -0.252513
                                                         0.447462      -0.154881
                                                         0.172572      -0.010571
                                                         0.057796       0.000077

                          1      12    6fx3              3.202637       0.279450
                                                         2.970404      -0.188766
                                                         1.054481      -0.110968
                                                         0.447462       0.012734
                                                         0.172572       0.000574
                                                         0.057796       0.002369
                          1      12    6fx2y             3.202637       0.624869
                                                         2.970404      -0.422094
                                                         1.054481      -0.248132
                                                         0.447462       0.028474
                                                         0.172572       0.001285
                                                         0.057796       0.005297
                          1      12    6fx2z             3.202637       0.624869
                                                         2.970404      -0.422094
                                                         1.054481      -0.248132
                                                         0.447462       0.028474
                                                         0.172572       0.001285
                                                         0.057796       0.005297
[...]
 MP_Sync         186329154
 MP_Alltoall      71317824                    345.
 MP_SendRecv         42418                  14537.
 MP_ISendRecv        43307                  14385.
 MP_Wait          64864218
 MP_comm_split    46276557
 MP_ISend        136271178                 289186.
 MP_IRecv        110168028                 356159.
 -------------------------------------------------------------------------------


 -------------------------------------------------------------------------------
 -                                                                             -
 -                           R E F E R E N C E S                               -
 -                                                                             -
 -------------------------------------------------------------------------------
 
 CP2K version 2025.1 (Development Version), the CP2K developers group (2025).
 CP2K is freely available from https://www.cp2k.org/ .
 
 M. Graml, K. Zollner, D. Hernangmez-Prez, P. E. Faria Junior, J. Wilhelm.
 J. Chem. Theory Comput. 20, 2202-2208 (2024).
 Low-scaling GW algorithm applied to twisted transition-metal dichalcogenide 
 heterobilayers.
 https://doi.org/10.1021/acs.jctc.3c01230

 T. D. Kuehne, M. Iannuzzi, M. Del Ben, V. V. Rybkin, P. Seewald, F. Stein, T. 
 Laino, R. Z. Khaliullin, O. Schuett, F. Schiffmann, D. Golze, J. Wilhelm, S. 
 Chulkov, M. H. Bani-Hashemian, V. Weber, U. Borstnik, M. Taillefumier, A. S. 
 Jakobovits, A. Lazzaro, H. Pabst, T. Mueller, R. Schade, M. Guidon, S. 
 Andermatt, N. Holmberg, G. K. Schenter, A. Hehn, A. Bussy, F. Belleflamme, G. 
 Tabacchi, A. Gloess, M. Lass, I. Bethune, C. J. Mundy, C. Plessl, M. Watkins, 
 J. VandeVondele, M. Krack, J. Hutter.
 J. Chem. Phys. 152, 194103 (2020).
 CP2K: An electronic structure and molecular dynamics software package - 
 Quickstep: Efficient and accurate electronic structure calculations.
 https://doi.org/10.1063/5.0007045

 O. Schuett, P. Messmer, J. Hutter, J. VandeVondele.
 Electronic Structure Calculations on Graphics Processing Units, 173-190 (2016).
 GPU-Accelerated Sparse Matrix-Matrix Multiplication for Linear Scaling Density 
 Functional Theory.
 https://doi.org/10.1002/9781118670712.ch8

 J. Hutter, M. Iannuzzi, F. Schiffmann, J. VandeVondele.
 WIREs Comput Mol Sci. 4, 15-25 (2014).
 CP2K: atomistic simulations of condensed matter systems.
 https://doi.org/10.1002/wcms.1159

 U. Borstnik, J. VandeVondele, V. Weber, J. Hutter.
 Parallel Comput. 40, 47-58 (2014).
 Sparse matrix multiplication: The distributed block-compressed sparse row 
 library.
 https://doi.org/10.1016/j.parco.2014.03.012

 J. VandeVondele, J. Hutter.
 J. Chem. Phys. 127, 114105 (2007).
 Gaussian basis sets for accurate calculations on molecular systems in gas and 
 condensed phases.
 https://doi.org/10.1063/1.2770708

 M. Krack.
 Theor. Chem. Acc. 114, 145-152 (2005).
 Pseudopotentials for H to Kr optimized for gradient-corrected 
 exchange-correlation functionals.
 https://doi.org/10.1007/s00214-005-0655-y

 M. Frigo, S. G. Johnson.
 Proc. IEEE 93, 216-231 (2005).
 The design and implementation of FFTW3.
 https://doi.org/10.1109/JPROC.2004.840301

 M. Krack, M. Parrinello.
 Phys. Chem. Chem. Phys. 2, 2105-2112 (2000).
 All-electron ab-initio molecular dynamics.
 https://doi.org/10.1039/b001167n

 G. Lippert, J. Hutter, M. Parrinello.
 Theor. Chem. Acc. 103, 124-140 (1999).
 The Gaussian and augmented-plane-wave density functional method for ab initio 
 molecular dynamics simulations.
 https://doi.org/10.1007/s002140050523

 C. Hartwigsen, S. Goedecker, J. Hutter.
 Phys. Rev. B 58, 3641-3662 (1998).
 Relativistic separable dual-space Gaussian pseudopotentials from H to Rn.
 https://doi.org/10.1103/PhysRevB.58.3641

 S. Goedecker, M. Teter, J. Hutter.
 Phys. Rev. B 54, 1703-1710 (1996).
 Separable dual-space Gaussian pseudopotentials.
 https://doi.org/10.1103/PhysRevB.54.1703

 J. P. Perdew, K. Burke, M. Ernzerhof.
 Phys. Rev. Lett. 77, 3865-3868 (1996).
 Generalized gradient approximation made simple.
 https://doi.org/10.1103/PhysRevLett.77.3865


 -------------------------------------------------------------------------------
 -                                                                             -
 -                                T I M I N G                                  -
 -                                                                             -
 -------------------------------------------------------------------------------
 SUBROUTINE                       CALLS  ASD         SELF TIME        TOTAL TIME
                                MAXIMUM       AVERAGE  MAXIMUM  AVERAGE  MAXIMUM
 CP2K                                 1  1.0      0.0      0.0 137286.3 137286.3
 qs_energies                          1  2.0      0.0      0.0 137284.4 137284.4
 qs_energies_properties               1  3.0      0.0      0.0 136606.1 136606.1
 post_scf_bandstructure               1  4.0      0.0      0.0 136606.1 136606.1
 gw                                   1  5.0      0.0      0.0 136450.6 136450.6
 gw_calc_small_cell_full_kp           1  6.0      0.0      0.0 135225.3 135225.3
 dbt_total                      *******  9.9    240.6    255.1  93001.8 105001.1
 dbt_contract                   ******* 10.6    404.3    441.5  70125.2  79377.7
 dbt_tas_multiply               ******* 13.0     44.7     49.3  63520.6  73600.8
 dbt_tas_total                  ******* 14.0   2001.4   2245.3  62490.1  71545.0
 compute_Sigma_c                      1  7.0      0.0      0.0  58555.2  58555.3
 compute_chi                          1  7.0      0.3      0.4  49781.7  49781.8
 dbt_tas_dbm                    ******* 15.0     41.2     46.3  33578.8  41028.2
 dbm_multiply                   ******* 17.0  31110.2  38683.5  31110.2  38683.5
 contract_to_Sigma                  915  8.0    297.0    348.0  30232.3  36325.9
 mp_sync                        ******* ****  24564.7  31174.4  24564.7  31174.4
 contract_M_occ_vir_to_chi          450  8.0    518.2    612.5  25499.2  30143.7
 dbt_copy                       ******* 11.1    219.5    238.0  24945.9  28188.3
 dbt_tas_mm_2                   5682336 16.1     20.2     24.6  19230.4  26110.2
 compute_W_real_space                 1  7.0     76.2     78.8  25096.4  25096.7
 contract_W                         465  8.0     44.6     46.9  22254.3  23413.3
 dbt_reshape                    ******* 12.0  11595.8  13751.9  20481.3  23354.5
 compute_Minv_and_Vsqrt               1  8.0      0.8      0.9  22063.5  22067.0
 build_2c_coulomb_matrix_kp_sma       2  9.0     20.7     21.6  22018.6  22018.7
 build_2c_coulomb_matrix_kp_sma  655360 10.0  19028.9  20661.7  19028.9  20661.7
 contract_to_Sigma_contract       57279  9.0     59.6     62.5  13238.4  18224.7
 G_times_3c                       56340  8.0     53.6     56.0  16680.9  17969.9
 contract_to_Sigma_3c_x_G       *******  9.0     35.3     38.3  16562.8  17674.7
 get_t_3c_int                   *******  9.6    188.5    238.1  12390.2  13576.6
 dbt_tas_estimate_result_nze    8443169 13.5   3997.8   4277.8  12808.2  13410.1
 dbt_tas_mm_3T                  6805460 16.2     12.3     15.3   7580.5   8464.9
 dbt_communicate_buffer         ******* 13.0     66.5     76.7   7425.9   8288.3
 mp_isend_dv                    ******* 17.7   6640.6   7525.8   6640.6   7525.8
 dbt_remap                      1119150 11.0    183.2    201.4   5324.2   6934.9
 dbt_tas_reshape                ******* 15.5    249.0    271.4   5572.6   5933.1
 dbt_tas_mm_1N                  4424490 15.5      7.2      8.0   4991.5   5720.8
 reshape_mm_small               ******* 15.0   1664.4   1819.2   4894.5   5126.7
 convert_to_new_pgrid           ******* 15.0    286.6    315.4   3718.2   4306.8
 dbm_copy                       ******* 16.0   3431.5   4023.2   3431.5   4023.2
 dbt_tas_create_split           ******* 16.1     71.4     79.7   3278.6   3480.8
 mp_waitall_2                   ******* 17.5   2553.3   3469.3   2553.3   3469.3
 dbt_tas_create_split_rows_or_c ******* 17.1    269.6    278.5   3207.2   3410.9
 dbm_reserve_blocks             ******* 16.6   2759.3   3198.4   2759.3   3198.4
 dbt_tas_reserve_blocks_index   ******* 15.8    102.8    110.1   2734.3   3136.6
 reshape_mm_compatible          ******* 15.0    346.9    361.2   2532.3   2656.2
 dbt_tas_communicate_buffer     ******* 17.3    217.6    235.5   2214.2   2600.1
 dbt_tas_copy                   ******* 12.6   1510.8   1789.5   2113.9   2497.4
 dbt_tas_distribution_new       ******* 15.8   1098.8   1179.6   2326.0   2486.9
 dbt_copy_nocomm                3473730 11.0   1436.1   1802.1   1903.7   2404.5
 dbt_tas_replicate              ******* 15.0    955.4   1012.7   2188.5   2320.1
 dbt_reserve_blocks_index_array ******* 13.0     35.9     40.4   1793.2   2140.8
 dbt_tas_reshape_buffer_obtain  ******* 16.5   1643.3   1813.9   1985.0   2137.6
 dbt_reserve_blocks_index       ******* 14.0     53.0     59.5   1776.1   2123.5
 dbt_tas_reshape_communicate_bu ******* 16.5     32.0     34.7   1628.9   2000.9
 change_split                   ******* 15.5    124.2    130.7   1824.4   1929.3
 dbt_tas_reshape_buffer_fill    ******* 16.5   1510.5   1727.0   1510.5   1727.0
 compute_Sigma_x                      1  7.0      0.0      0.0   1647.6   1647.7
 mp_cart_create                 ******* 16.8   1356.5   1454.7   1434.1   1540.1
 create_and_init_bs_env_for_gw        1  6.0      0.0      0.0   1225.3   1225.3
 mp_comm_dup                    ******* 18.6   1000.7   1164.6   1043.2   1205.3
 compute_3c_integrals                 1  7.0      0.1      0.1   1123.3   1123.3
 build_3c_integrals                   1  8.0    713.7   1099.8    734.9   1122.3
 mp_comm_split_direct           ******* 18.1    955.9   1026.8    982.7   1058.2
 add_rs_to_ikp                  *******  9.9    941.1   1010.0    941.1   1010.0
 trafo_rs_to_ikp                  10736  8.1     11.2     12.6    909.0    970.9
 add_V_L                         327680 10.0     29.6    968.0     29.6    968.0
 dbt_tas_reserve_blocks_templat ******* 14.1    144.1    161.3    826.6    928.0
 add_ikp_to_rs                  *******  9.9    800.7    902.3    800.7    902.3
 dbm_add                        ******* 15.0    816.9    885.4    816.9    885.4
 add_ikp_to_all_rs                 9848  8.0      9.0     10.0    766.6    868.3
 mp_sum_dm                       655424 10.0    763.7    795.6    763.7    795.6
 dbcsr_complete_redistribute     481504  9.6     17.2     23.7    652.1    702.7
 fm_to_local_array                  934  8.1    176.9    221.2    696.7    699.3
 mp_sum_l                       ******* 15.2    517.4    681.8    517.4    681.8
 scf_env_do_scf                       1  3.0      0.0      0.0    678.0    678.0
 scf_env_do_scf_inner_loop           65  4.0      0.0      0.0    678.0    678.0
 qs_scf_new_mos_kp                   65  5.0      0.0      0.0    663.1    663.1
 do_general_diag_kp                  65  6.0      0.7      0.8    663.1    663.1
 copy_dbcsr_to_fm                268649  8.1      2.9      3.3    624.3    631.0
 dbt_permute_index              ******* 12.3    506.2    534.6    573.5    608.6
 dbt_reserve_blocks_template    3473730 12.0     17.5     20.0    467.6    606.0
 dbt_tas_replicate_communicate_ ******* 15.9     20.7     23.0    554.6    590.0
 mp_alltoall_i                  ******* 15.1    310.8    551.8    310.8    551.8
 dbt_tas_merge                  5682336 15.1    316.7    346.5    502.0    542.7
 dbt_tas_mp_comm                9553544 13.2     49.9     53.5    510.6    538.0
 dbt_tas_create_new             ******* 15.3    486.9    527.9    486.9    527.9
 G_occ_vir                          121  8.0      0.6      0.8    497.4    500.5
 mp_sum_dm3                        1060  9.0    484.1    500.0    484.1    500.0
 dbcsr_desymmetrize_deep         415833  8.4      6.8      8.9    481.3    492.5
 dbt_align_index                ******* 11.5     71.1     77.0    455.5    477.5
 fm_to_local_tensor              146072  9.0      3.6      4.3    456.0    456.1
 power                            20408  8.0     45.2     47.1    425.5    441.8
 mp_comm_free                   ******* -9.9    392.1    423.1    392.1    423.1
 diag_complex                     20408  9.0    380.3    395.6    380.3    395.6
 copy_fm_to_dbcsr                212855  9.4      1.0      1.1    318.6    367.3
 mp_alltoall_d11v               2692011 10.5    347.6    350.3    347.6    350.3
 mp_alltoall_i22                 897337 10.1    291.8    343.1    291.8    343.1
 mp_alltoall_i11v               1860345 10.4    324.1    324.3    324.1    324.3
 dbm_filter                     ******* 14.9    261.1    323.7    261.1    323.7
 add_R                          ******* -8.6    204.6    212.2    278.9    288.4
 local_dbt_to_global_fm              91  8.0      0.3      0.3    262.4    262.4
 dbt_tas_replicate_alltoall     ******* 15.9     14.3     15.8    110.0    257.2
 dbt_distribution_new_expert    2530454 12.4     35.7     38.8    223.5    242.7
 reshape_mm_template            2238300 15.5    128.3    137.0    221.2    232.0
 dbt_destroy                    ******* 11.4    190.5    217.0    204.1    230.5
 global_matrix_to_local_matrix   146072 10.0      2.8      5.7    159.3    208.2
 mp_cart_get                    *******  3.2    190.6    205.3    190.6    205.3
 mult_W_with_Minv                    30  8.0      3.7      4.3    190.3    190.5
 dbt_tas_reshape_alltoall       ******* 16.5     24.5     26.5     98.3    171.9
 mp_comm_size                   ******* -4.2    143.8    170.9    143.8    170.9
 mp_waitall_1                   1428679 11.2    121.9    168.8    121.9    168.8
 send_data                       146072 11.0      0.2      0.2    121.8    165.2
 communicate_buffer              146072 12.0      2.3     23.7    121.6    165.0
 hybrid_alltoall_any             415833  9.4      2.0      2.2    161.8    162.9
 mp_max_i                       ******* 11.6    140.4    162.2    140.4    162.2
 dbm_scale                      ******* 13.4    128.4    156.8    128.4    156.8
 fm_add_ikp_to_rs                123904  9.0     77.8     79.3    120.9    151.8
 cp_cfm_gemm                     284468 10.9    116.5    144.9    116.5    144.9
 parallel_gemm_cfm               280952  8.9      0.3      0.3    116.1    144.4
 compute_QP_energies                  1  7.0      0.1      0.1    144.3    144.4
 parallel_gemm_cfm_gemm          280952  9.9      0.3      0.4    115.8    144.1
 trafo_to_k_and_nn                71492  8.0      0.6      0.7    144.0    144.0
 dbt_pgrid_create_expert        2530457 13.4      7.4      9.5     70.6    137.5
 kpoint_density_transform            65  7.0      0.2      0.3    136.0    136.1
 fm_MWM_R_t_to_local_tensor_W_R      30  8.0      0.0      0.1    135.9    135.9
 is_cell_in_index_to_cell       ******* -0.9    127.1    132.9    127.1    132.9
 dbt_create_new                 1265227 11.9     22.8     26.1    111.6    121.7
 mp_bcast_i                     ******* 18.1    104.4    119.2    104.4    119.2
 get_V_tr_R                          34  9.0      0.2      0.2    118.6    119.0
 mp_comm_rank                   ******* -4.2    107.0    115.1    107.0    115.1
 dbt_nd_mp_comm                 1265222 11.9      5.7      6.9     46.1    112.9
 dbt_create_matrix               146072 10.0      1.8      2.0     36.1    105.6
 dbt_tas_merge_communicate_buff 5682336 16.1     11.2     12.6     94.5    100.2
 fm_trafo_rs_to_ikp               71492  9.0     46.7     48.2     90.0    100.1
 rskp_transform                   73592  7.1      2.2     99.6      2.2     99.6
 cp_cfm_heevd                      4948  7.5      0.0      0.0     97.6     97.8
 cp_cfm_heevd_base                 4948  8.5     97.6     97.8     97.6     97.8
 dbt_tas_reshape_get_coord      ******* 16.5     85.9     95.6     85.9     95.6
 local_dbt_to_global_mat          87451  9.0      1.1      1.3     47.6     74.5
 dos_pdos_ldos                        1  5.0      0.0      0.0     73.3     73.3
 get_data                        146072 11.0      7.0     72.1      7.4     72.6
 dbcsr_finalize                 1878267 11.0     12.5     16.2     55.7     71.8
 SOC_ev                            2344  6.0      0.0      0.0     69.2     69.3
 local_matrix_to_global_matrix    87451 10.0      0.4      0.4     39.6     67.1
 mp_isend_lm2                   ******* 18.3     62.2     66.2     62.2     66.2
 cp_fm_start_copy_general        199680  7.3      1.9      3.5     59.0     59.8
 mp_cart_sub                     537377 10.1     59.0     59.1     59.0     59.1
 create_and_init_bs_env               1  5.0      0.0      0.0     54.9     54.9
 compute_cfm_mo_coeff_kp_and_ei       1  6.0      0.0      0.0     54.9     54.9
 rsmat_to_kp                       7032  7.2      0.1      0.1     53.0     53.3
 mp_sum_i                       ******* 16.0     46.0     52.0     46.0     52.0
 mp_irecv_lm2                   ******* 18.3     45.2     49.7     45.2     49.7
 mp_allgather_i                  399360  8.3     46.9     48.0     46.9     48.0
 dbt_tas_merge_alltoall         5682336 16.1     10.7     12.0     35.7     47.6
 dbcsr_filter_anytype            661402 11.0      4.5      5.1     32.3     44.3
 dbt_create_3c_R1_R2                 62  8.0      5.8      6.8     40.7     44.1
 transform_dmat                   33280  8.0      0.9     43.6      0.9     43.6
 mp_irecv_dv                    ******* 17.7     39.1     42.9     39.1     42.9
 dbt_create_template            3875180  9.0     37.3     41.0     37.3     41.0
 setup_cells_3c                       1  7.0      1.7      1.7     40.8     40.8
 heuristic_RI_regularization          1  7.0      0.0      0.0     40.7     40.7
 build_3c_integral_block          14607  8.0     21.8     25.6     35.8     39.2
 mp_dims_create                 ******* 14.4     32.6     37.4     32.6     37.4
 cp_cfm_geeig_canon                1172  7.0      0.0      0.0     36.4     36.5
 dbcsr_merge_all                 709380 11.8     20.0     27.1     27.6     36.0
 set_blocks                       87451 11.0      2.1     17.0     10.6     32.5
 mp_isend_im2                   ******* 14.0     18.5     31.9     18.5     31.9
 dbt_buffer_get_index           ******* 16.8     25.8     30.2     25.8     30.2
 dbt_distribution_destroy       2530454 12.4     21.4     24.6     26.7     30.2
 soc                                  1  5.0      0.0      0.0     27.2     27.2
 H_KS_spinor_kp                       1  6.0      0.0      0.0     27.1     27.2
 destroy_t_2d                        62  8.0      6.9      7.2     24.3     27.1
 mp_irecv_im2                   9942882 14.0     18.4     23.8     18.4     23.8
 comm_data                        87451 11.0      0.5      3.7     18.6     21.0
 mp_cart_rank                   ******* 15.9     15.0     20.5     15.0     20.5
 alloc_block_3c                       1  9.0      0.3      0.4     17.0     18.4
 get_Minv_Vtr_Minv_R                  1  8.0      0.1      0.2     17.4     17.4
 build_2c_integrals                  34 10.0      0.3     11.1      0.5     16.0
 abc_contract_xsmm                74968  9.0     13.6     15.0     13.6     15.0
 dbcsr_work_create              1125213 10.4      8.1      9.6     12.0     14.5
 dbcsr_iterator_start           4063895 10.9     12.1     12.6     13.4     13.9
 -------------------------------------------------------------------------------

 The number of warnings for this run is : 2
 
 -------------------------------------------------------------------------------
  **** **** ******  **  PROGRAM ENDED AT                 2025-03-21 16:01:42.485
 ***** ** ***  *** **   PROGRAM RAN ON                              f01r01c01s12
 **    ****   ******    PROGRAM RAN BY                                   di38fab
 ***** **    ** ** **   PROGRAM PROCESS ID                               2091223
  **** **  *******  **  PROGRAM STOPPED IN /hppfs/scratch/04/di38fab/04_TMD/3_WS
                                           2__/TZV2Pnonaug/1e-3
