 DBCSR| CPU Multiplication driver                                           XSMM (U)
 DBCSR| Multrec recursion limit                                              512 (U)
 DBCSR| Multiplication stack size                                           1000 (D)
 DBCSR| Maximum elements for images                                    UNLIMITED (U)
 DBCSR| Multiplicative factor virtual images                                   1 (U)
 DBCSR| Use multiplication densification                                       T (D)
 DBCSR| Multiplication size stacks                                             3 (U)
 DBCSR| Use memory pool for CPU allocation                                     F (U)
 DBCSR| Number of 3D layers                                               SINGLE (U)
 DBCSR| Use MPI memory allocation                                              F (U)
 DBCSR| Use RMA algorithm                                                      F (U)
 DBCSR| Use Communication thread                                               T (U)
 DBCSR| Communication thread load                                             60 (D)
 DBCSR| MPI: My process id                                                     0
 DBCSR| MPI: Number of processes                                             256
 DBCSR| OMP: Current number of threads                                         8
 DBCSR| OMP: Max number of threads                                             8
 DBCSR| Split modifier for TAS multiplication algorithm                  1.0E+00 (U)


  **** **** ******  **  PROGRAM STARTED AT               2025-07-18 17:46:47.228
 ***** ** ***  *** **   PROGRAM STARTED ON                              n2cn0418
 **    ****   ******    PROGRAM STARTED BY                              metdyn02
 ***** **    ** ** **   PROGRAM PROCESS ID                               1861234
  **** **  *******  **  PROGRAM STARTED IN /scratch/hpc-prf-metdyn/metdyn02_Remi
                                           /05_TMD_new/4_WSe2_/TZVP/1e-3/smallso
                                           cwindow

 CP2K| version string:                 CP2K version 2025.1 (Development Version)
 CP2K| source code revision number:                                  git:400017f
 CP2K| cp2kflags: omp libint fftw3 libxc libgrpp elpa parallel scalapack mpi_f08
 CP2K|             cosma xsmm plumed2 spglib libvori libbqb libvdwxc hdf5
 CP2K| is freely available from                            https://www.cp2k.org/
 CP2K| Program compiled at                         Thu Jun 26 12:02:16 CEST 2025
 CP2K| Program compiled on                                              n2login1
 CP2K| Program compiled for                                                local
 CP2K| Data directory path    /opt/software/pc2/EB-SW/software/CP2K/2024.1-foss-
 CP2K| Input file name                                                    GW.inp

 GLOBAL| Force Environment number                                              1
 GLOBAL| Basis set file name                                        BASIS_MOLOPT
 GLOBAL| Potential file name                                  GTH_SOC_POTENTIALS
 GLOBAL| MM Potential file name                                     MM_POTENTIAL
 GLOBAL| Coordinate file name                                      __STD_INPUT__
 GLOBAL| Method name                                                        CP2K
 GLOBAL| Project name                                                       MoS2
 GLOBAL| Run type                                                         ENERGY
 GLOBAL| FFT library                                                       FFTW3
 GLOBAL| Diagonalization library                                            ELPA
 GLOBAL| Cholesky decomposition library                                ScaLAPACK
 GLOBAL| DGEMM library                                                      BLAS
 GLOBAL| Minimum number of eigenvectors for ELPA usage                        16
 GLOBAL| Orthonormality check for eigenvectors                          DISABLED
 GLOBAL| Matrix multiplication library                                     COSMA
 GLOBAL| All-to-all communication in single precision                          F
 GLOBAL| FFTs using library dependent lengths                                  F
 GLOBAL| Grid backend                                                       AUTO
 GLOBAL| Global print level                                               MEDIUM
 GLOBAL| MPI I/O enabled                                                       T
 GLOBAL| Total number of message passing processes                           256
 GLOBAL| Number of threads for this process                                    8
 GLOBAL| This output is from process                                           0
 GLOBAL| OpenMP stack size per thread (OMP_STACKSIZE)                    default
 GLOBAL| CPU model name                          AMD EPYC 7763 64-Core Processor
 GLOBAL| CPUID                                                              1002

 MEMORY| system memory details [Kb]
 MEMORY|                        rank 0           min           max       average
 MEMORY| MemTotal            263897580     263897552     263897628     263897593
 MEMORY| MemFree             236081068     233542712     246633980     238469011
 MEMORY| Buffers                 58160         12280        140180         70651
 MEMORY| Cached               19706768       9375540      22149128      17251961
 MEMORY| Slab                  2274220       1634324       2777364       2292622
 MEMORY| SReclaimable           769596        305616       1086108        747353
 MEMORY| MemLikelyFree       256615592     256280680     256795412     256538977


 *** Fundamental physical constants (SI units) ***

 *** Literature: B. J. Mohr and B. N. Taylor,
 ***             CODATA recommended values of the fundamental physical
 ***             constants: 2006, Web Version 5.1
 ***             http://physics.nist.gov/constants

 Speed of light in vacuum [m/s]                             2.99792458000000E+08
 Magnetic constant or permeability of vacuum [N/A**2]       1.25663706143592E-06
 Electric constant or permittivity of vacuum [F/m]          8.85418781762039E-12
 Planck constant (h) [J*s]                                  6.62606896000000E-34
 Planck constant (h-bar) [J*s]                              1.05457162825177E-34
 Elementary charge [C]                                      1.60217648700000E-19
 Electron mass [kg]                                         9.10938215000000E-31
 Electron g factor [ ]                                     -2.00231930436220E+00
 Proton mass [kg]                                           1.67262163700000E-27
 Fine-structure constant                                    7.29735253760000E-03
 Rydberg constant [1/m]                                     1.09737315685270E+07
 Avogadro constant [1/mol]                                  6.02214179000000E+23
 Boltzmann constant [J/K]                                   1.38065040000000E-23
 Atomic mass unit [kg]                                      1.66053878200000E-27
 Bohr radius [m]                                            5.29177208590000E-11

 *** Conversion factors ***

 [u] -> [a.u.]                                              1.82288848426455E+03
 [Angstrom] -> [Bohr] = [a.u.]                              1.88972613288564E+00
 [a.u.] = [Bohr] -> [Angstrom]                              5.29177208590000E-01
 [a.u.] -> [s]                                              2.41888432650478E-17
 [a.u.] -> [fs]                                             2.41888432650478E-02
 [a.u.] -> [J]                                              4.35974393937059E-18
 [a.u.] -> [N]                                              8.23872205491840E-08
 [a.u.] -> [K]                                              3.15774647902944E+05
 [a.u.] -> [kJ/mol]                                         2.62549961709828E+03
 [a.u.] -> [kcal/mol]                                       6.27509468713739E+02
 [a.u.] -> [Pa]                                             2.94210107994716E+13
 [a.u.] -> [bar]                                            2.94210107994716E+08
 [a.u.] -> [atm]                                            2.90362800883016E+08
 [a.u.] -> [eV]                                             2.72113838565563E+01
 [a.u.] -> [Hz]                                             6.57968392072181E+15
 [a.u.] -> [1/cm] (wave numbers)                            2.19474631370540E+05
 [a.u./Bohr**2] -> [1/cm]                                   5.14048714338585E+03
 

 CELL_TOP| Volume [angstrom^3]:                                       143.098933
 CELL_TOP| Vector a [angstrom     3.319     0.000     0.000   |a| =     3.319000
 CELL_TOP| Vector b [angstrom    -1.659     2.874     0.000   |b| =     3.319000
 CELL_TOP| Vector c [angstrom     0.000     0.000    15.000   |c| =    15.000000
 CELL_TOP| Angle (b,c), alpha [degree]:                                90.000000
 CELL_TOP| Angle (a,c), beta  [degree]:                                90.000000
 CELL_TOP| Angle (a,b), gamma [degree]:                               120.000000
 CELL_TOP| Numerically orthorhombic:                                          NO
 CELL_TOP| Periodicity                                                        XY

 GENERATE|  Preliminary Number of Bonds generated:                             0
 GENERATE|  Achieved consistency in connectivity generation.

 CELL| Volume [angstrom^3]:                                           143.098933
 CELL| Vector a [angstrom]:       3.319     0.000     0.000   |a| =     3.319000
 CELL| Vector b [angstrom]:      -1.659     2.874     0.000   |b| =     3.319000
 CELL| Vector c [angstrom]:       0.000     0.000    15.000   |c| =    15.000000
 CELL| Angle (b,c), alpha [degree]:                                    90.000000
 CELL| Angle (a,c), beta  [degree]:                                    90.000000
 CELL| Angle (a,b), gamma [degree]:                                   120.000000
 CELL| Numerically orthorhombic:                                              NO
 CELL| Periodicity                                                            XY

 CELL_REF| Volume [angstrom^3]:                                       143.098933
 CELL_REF| Vector a [angstrom     3.319     0.000     0.000   |a| =     3.319000
 CELL_REF| Vector b [angstrom    -1.659     2.874     0.000   |b| =     3.319000
 CELL_REF| Vector c [angstrom     0.000     0.000    15.000   |c| =    15.000000
 CELL_REF| Angle (b,c), alpha [degree]:                                90.000000
 CELL_REF| Angle (a,c), beta  [degree]:                                90.000000
 CELL_REF| Angle (a,b), gamma [degree]:                               120.000000
 CELL_REF| Numerically orthorhombic:                                          NO
 CELL_REF| Periodicity                                                        XY

 *******************************************************************************
                                    Kpoints
 *******************************************************************************
 BRILLOUIN| K-point scheme                                        Monkhorst-Pack
 BRILLOUIN| K-Point grid                                            40   40    1
 BRILLOUIN| Accuracy in Symmetry determination                      0.100000E-05
 BRILLOUIN| K-Point point group symmetrization                               OFF
 BRILLOUIN| Wavefunction type                                            COMPLEX
 BRILLOUIN| List of Kpoints [2 Pi/Bohr]                                      800
 BRILLOUIN| Number           Weight            X              Y              Z
 BRILLOUIN|     1           0.00125       -0.48750       -0.48750        0.00000
 BRILLOUIN|     2           0.00125       -0.48750       -0.46250        0.00000
 BRILLOUIN|     3           0.00125       -0.48750       -0.43750        0.00000
 BRILLOUIN|     4           0.00125       -0.48750       -0.41250        0.00000
 BRILLOUIN|     5           0.00125       -0.48750       -0.38750        0.00000
 BRILLOUIN|     6           0.00125       -0.48750       -0.36250        0.00000
 BRILLOUIN|     7           0.00125       -0.48750       -0.33750        0.00000
 BRILLOUIN|     8           0.00125       -0.48750       -0.31250        0.00000
 BRILLOUIN|     9           0.00125       -0.48750       -0.28750        0.00000
 BRILLOUIN|    10           0.00125       -0.48750       -0.26250        0.00000
 BRILLOUIN|    11           0.00125       -0.48750       -0.23750        0.00000
 BRILLOUIN|    12           0.00125       -0.48750       -0.21250        0.00000
 BRILLOUIN|    13           0.00125       -0.48750       -0.18750        0.00000
 BRILLOUIN|    14           0.00125       -0.48750       -0.16250        0.00000
 BRILLOUIN|    15           0.00125       -0.48750       -0.13750        0.00000
 BRILLOUIN|    16           0.00125       -0.48750       -0.11250        0.00000
 BRILLOUIN|    17           0.00125       -0.48750       -0.08750        0.00000
 BRILLOUIN|    18           0.00125       -0.48750       -0.06250        0.00000
 BRILLOUIN|    19           0.00125       -0.48750       -0.03750        0.00000
 BRILLOUIN|    20           0.00125       -0.48750       -0.01250        0.00000
 BRILLOUIN|    21           0.00125       -0.48750        0.01250        0.00000
 BRILLOUIN|    22           0.00125       -0.48750        0.03750        0.00000
 BRILLOUIN|    23           0.00125       -0.48750        0.06250        0.00000
 BRILLOUIN|    24           0.00125       -0.48750        0.08750        0.00000
 BRILLOUIN|    25           0.00125       -0.48750        0.11250        0.00000
 BRILLOUIN|    26           0.00125       -0.48750        0.13750        0.00000
 BRILLOUIN|    27           0.00125       -0.48750        0.16250        0.00000
 BRILLOUIN|    28           0.00125       -0.48750        0.18750        0.00000
 BRILLOUIN|    29           0.00125       -0.48750        0.21250        0.00000
 BRILLOUIN|    30           0.00125       -0.48750        0.23750        0.00000
 BRILLOUIN|    31           0.00125       -0.48750        0.26250        0.00000
 BRILLOUIN|    32           0.00125       -0.48750        0.28750        0.00000
 BRILLOUIN|    33           0.00125       -0.48750        0.31250        0.00000
 BRILLOUIN|    34           0.00125       -0.48750        0.33750        0.00000
 BRILLOUIN|    35           0.00125       -0.48750        0.36250        0.00000
 BRILLOUIN|    36           0.00125       -0.48750        0.38750        0.00000
 BRILLOUIN|    37           0.00125       -0.48750        0.41250        0.00000
 BRILLOUIN|    38           0.00125       -0.48750        0.43750        0.00000
 BRILLOUIN|    39           0.00125       -0.48750        0.46250        0.00000
 BRILLOUIN|    40           0.00125       -0.48750        0.48750        0.00000
 BRILLOUIN|    41           0.00125       -0.46250       -0.48750        0.00000
 BRILLOUIN|    42           0.00125       -0.46250       -0.46250        0.00000
 BRILLOUIN|    43           0.00125       -0.46250       -0.43750        0.00000
 BRILLOUIN|    44           0.00125       -0.46250       -0.41250        0.00000
 BRILLOUIN|    45           0.00125       -0.46250       -0.38750        0.00000
 BRILLOUIN|    46           0.00125       -0.46250       -0.36250        0.00000
 BRILLOUIN|    47           0.00125       -0.46250       -0.33750        0.00000
 BRILLOUIN|    48           0.00125       -0.46250       -0.31250        0.00000
 BRILLOUIN|    49           0.00125       -0.46250       -0.28750        0.00000
 BRILLOUIN|    50           0.00125       -0.46250       -0.26250        0.00000
 BRILLOUIN|    51           0.00125       -0.46250       -0.23750        0.00000
 BRILLOUIN|    52           0.00125       -0.46250       -0.21250        0.00000
 BRILLOUIN|    53           0.00125       -0.46250       -0.18750        0.00000
 BRILLOUIN|    54           0.00125       -0.46250       -0.16250        0.00000
 BRILLOUIN|    55           0.00125       -0.46250       -0.13750        0.00000
 BRILLOUIN|    56           0.00125       -0.46250       -0.11250        0.00000
 BRILLOUIN|    57           0.00125       -0.46250       -0.08750        0.00000
 BRILLOUIN|    58           0.00125       -0.46250       -0.06250        0.00000
 BRILLOUIN|    59           0.00125       -0.46250       -0.03750        0.00000
 BRILLOUIN|    60           0.00125       -0.46250       -0.01250        0.00000
 BRILLOUIN|    61           0.00125       -0.46250        0.01250        0.00000
 BRILLOUIN|    62           0.00125       -0.46250        0.03750        0.00000
 BRILLOUIN|    63           0.00125       -0.46250        0.06250        0.00000
 BRILLOUIN|    64           0.00125       -0.46250        0.08750        0.00000
 BRILLOUIN|    65           0.00125       -0.46250        0.11250        0.00000
 BRILLOUIN|    66           0.00125       -0.46250        0.13750        0.00000
 BRILLOUIN|    67           0.00125       -0.46250        0.16250        0.00000
 BRILLOUIN|    68           0.00125       -0.46250        0.18750        0.00000
 BRILLOUIN|    69           0.00125       -0.46250        0.21250        0.00000
 BRILLOUIN|    70           0.00125       -0.46250        0.23750        0.00000
 BRILLOUIN|    71           0.00125       -0.46250        0.26250        0.00000
 BRILLOUIN|    72           0.00125       -0.46250        0.28750        0.00000
 BRILLOUIN|    73           0.00125       -0.46250        0.31250        0.00000
 BRILLOUIN|    74           0.00125       -0.46250        0.33750        0.00000
 BRILLOUIN|    75           0.00125       -0.46250        0.36250        0.00000
 BRILLOUIN|    76           0.00125       -0.46250        0.38750        0.00000
 BRILLOUIN|    77           0.00125       -0.46250        0.41250        0.00000
 BRILLOUIN|    78           0.00125       -0.46250        0.43750        0.00000
 BRILLOUIN|    79           0.00125       -0.46250        0.46250        0.00000
 BRILLOUIN|    80           0.00125       -0.46250        0.48750        0.00000
 BRILLOUIN|    81           0.00125       -0.43750       -0.48750        0.00000
 BRILLOUIN|    82           0.00125       -0.43750       -0.46250        0.00000
 BRILLOUIN|    83           0.00125       -0.43750       -0.43750        0.00000
 BRILLOUIN|    84           0.00125       -0.43750       -0.41250        0.00000
 BRILLOUIN|    85           0.00125       -0.43750       -0.38750        0.00000
 BRILLOUIN|    86           0.00125       -0.43750       -0.36250        0.00000
 BRILLOUIN|    87           0.00125       -0.43750       -0.33750        0.00000
 BRILLOUIN|    88           0.00125       -0.43750       -0.31250        0.00000
 BRILLOUIN|    89           0.00125       -0.43750       -0.28750        0.00000
 BRILLOUIN|    90           0.00125       -0.43750       -0.26250        0.00000
 BRILLOUIN|    91           0.00125       -0.43750       -0.23750        0.00000
 BRILLOUIN|    92           0.00125       -0.43750       -0.21250        0.00000
 BRILLOUIN|    93           0.00125       -0.43750       -0.18750        0.00000
 BRILLOUIN|    94           0.00125       -0.43750       -0.16250        0.00000
 BRILLOUIN|    95           0.00125       -0.43750       -0.13750        0.00000
 BRILLOUIN|    96           0.00125       -0.43750       -0.11250        0.00000
 BRILLOUIN|    97           0.00125       -0.43750       -0.08750        0.00000
 BRILLOUIN|    98           0.00125       -0.43750       -0.06250        0.00000
 BRILLOUIN|    99           0.00125       -0.43750       -0.03750        0.00000
 BRILLOUIN|   100           0.00125       -0.43750       -0.01250        0.00000
 BRILLOUIN|   101           0.00125       -0.43750        0.01250        0.00000
 BRILLOUIN|   102           0.00125       -0.43750        0.03750        0.00000
 BRILLOUIN|   103           0.00125       -0.43750        0.06250        0.00000
 BRILLOUIN|   104           0.00125       -0.43750        0.08750        0.00000
 BRILLOUIN|   105           0.00125       -0.43750        0.11250        0.00000
 BRILLOUIN|   106           0.00125       -0.43750        0.13750        0.00000
 BRILLOUIN|   107           0.00125       -0.43750        0.16250        0.00000
 BRILLOUIN|   108           0.00125       -0.43750        0.18750        0.00000
 BRILLOUIN|   109           0.00125       -0.43750        0.21250        0.00000
 BRILLOUIN|   110           0.00125       -0.43750        0.23750        0.00000
 BRILLOUIN|   111           0.00125       -0.43750        0.26250        0.00000
 BRILLOUIN|   112           0.00125       -0.43750        0.28750        0.00000
 BRILLOUIN|   113           0.00125       -0.43750        0.31250        0.00000
 BRILLOUIN|   114           0.00125       -0.43750        0.33750        0.00000
 BRILLOUIN|   115           0.00125       -0.43750        0.36250        0.00000
 BRILLOUIN|   116           0.00125       -0.43750        0.38750        0.00000
 BRILLOUIN|   117           0.00125       -0.43750        0.41250        0.00000
 BRILLOUIN|   118           0.00125       -0.43750        0.43750        0.00000
 BRILLOUIN|   119           0.00125       -0.43750        0.46250        0.00000
 BRILLOUIN|   120           0.00125       -0.43750        0.48750        0.00000
 BRILLOUIN|   121           0.00125       -0.41250       -0.48750        0.00000
 BRILLOUIN|   122           0.00125       -0.41250       -0.46250        0.00000
 BRILLOUIN|   123           0.00125       -0.41250       -0.43750        0.00000
 BRILLOUIN|   124           0.00125       -0.41250       -0.41250        0.00000
 BRILLOUIN|   125           0.00125       -0.41250       -0.38750        0.00000
 BRILLOUIN|   126           0.00125       -0.41250       -0.36250        0.00000
 BRILLOUIN|   127           0.00125       -0.41250       -0.33750        0.00000
 BRILLOUIN|   128           0.00125       -0.41250       -0.31250        0.00000
 BRILLOUIN|   129           0.00125       -0.41250       -0.28750        0.00000
 BRILLOUIN|   130           0.00125       -0.41250       -0.26250        0.00000
 BRILLOUIN|   131           0.00125       -0.41250       -0.23750        0.00000
 BRILLOUIN|   132           0.00125       -0.41250       -0.21250        0.00000
 BRILLOUIN|   133           0.00125       -0.41250       -0.18750        0.00000
 BRILLOUIN|   134           0.00125       -0.41250       -0.16250        0.00000
 BRILLOUIN|   135           0.00125       -0.41250       -0.13750        0.00000
 BRILLOUIN|   136           0.00125       -0.41250       -0.11250        0.00000
 BRILLOUIN|   137           0.00125       -0.41250       -0.08750        0.00000
 BRILLOUIN|   138           0.00125       -0.41250       -0.06250        0.00000
 BRILLOUIN|   139           0.00125       -0.41250       -0.03750        0.00000
 BRILLOUIN|   140           0.00125       -0.41250       -0.01250        0.00000
 BRILLOUIN|   141           0.00125       -0.41250        0.01250        0.00000
 BRILLOUIN|   142           0.00125       -0.41250        0.03750        0.00000
 BRILLOUIN|   143           0.00125       -0.41250        0.06250        0.00000
 BRILLOUIN|   144           0.00125       -0.41250        0.08750        0.00000
 BRILLOUIN|   145           0.00125       -0.41250        0.11250        0.00000
 BRILLOUIN|   146           0.00125       -0.41250        0.13750        0.00000
 BRILLOUIN|   147           0.00125       -0.41250        0.16250        0.00000
 BRILLOUIN|   148           0.00125       -0.41250        0.18750        0.00000
 BRILLOUIN|   149           0.00125       -0.41250        0.21250        0.00000
 BRILLOUIN|   150           0.00125       -0.41250        0.23750        0.00000
 BRILLOUIN|   151           0.00125       -0.41250        0.26250        0.00000
 BRILLOUIN|   152           0.00125       -0.41250        0.28750        0.00000
 BRILLOUIN|   153           0.00125       -0.41250        0.31250        0.00000
 BRILLOUIN|   154           0.00125       -0.41250        0.33750        0.00000
 BRILLOUIN|   155           0.00125       -0.41250        0.36250        0.00000
 BRILLOUIN|   156           0.00125       -0.41250        0.38750        0.00000
 BRILLOUIN|   157           0.00125       -0.41250        0.41250        0.00000
 BRILLOUIN|   158           0.00125       -0.41250        0.43750        0.00000
 BRILLOUIN|   159           0.00125       -0.41250        0.46250        0.00000
 BRILLOUIN|   160           0.00125       -0.41250        0.48750        0.00000
 BRILLOUIN|   161           0.00125       -0.38750       -0.48750        0.00000
 BRILLOUIN|   162           0.00125       -0.38750       -0.46250        0.00000
 BRILLOUIN|   163           0.00125       -0.38750       -0.43750        0.00000
 BRILLOUIN|   164           0.00125       -0.38750       -0.41250        0.00000
 BRILLOUIN|   165           0.00125       -0.38750       -0.38750        0.00000
 BRILLOUIN|   166           0.00125       -0.38750       -0.36250        0.00000
 BRILLOUIN|   167           0.00125       -0.38750       -0.33750        0.00000
 BRILLOUIN|   168           0.00125       -0.38750       -0.31250        0.00000
 BRILLOUIN|   169           0.00125       -0.38750       -0.28750        0.00000
 BRILLOUIN|   170           0.00125       -0.38750       -0.26250        0.00000
 BRILLOUIN|   171           0.00125       -0.38750       -0.23750        0.00000
 BRILLOUIN|   172           0.00125       -0.38750       -0.21250        0.00000
 BRILLOUIN|   173           0.00125       -0.38750       -0.18750        0.00000
 BRILLOUIN|   174           0.00125       -0.38750       -0.16250        0.00000
 BRILLOUIN|   175           0.00125       -0.38750       -0.13750        0.00000
 BRILLOUIN|   176           0.00125       -0.38750       -0.11250        0.00000
 BRILLOUIN|   177           0.00125       -0.38750       -0.08750        0.00000
 BRILLOUIN|   178           0.00125       -0.38750       -0.06250        0.00000
 BRILLOUIN|   179           0.00125       -0.38750       -0.03750        0.00000
 BRILLOUIN|   180           0.00125       -0.38750       -0.01250        0.00000
 BRILLOUIN|   181           0.00125       -0.38750        0.01250        0.00000
 BRILLOUIN|   182           0.00125       -0.38750        0.03750        0.00000
 BRILLOUIN|   183           0.00125       -0.38750        0.06250        0.00000
 BRILLOUIN|   184           0.00125       -0.38750        0.08750        0.00000
 BRILLOUIN|   185           0.00125       -0.38750        0.11250        0.00000
 BRILLOUIN|   186           0.00125       -0.38750        0.13750        0.00000
 BRILLOUIN|   187           0.00125       -0.38750        0.16250        0.00000
 BRILLOUIN|   188           0.00125       -0.38750        0.18750        0.00000
 BRILLOUIN|   189           0.00125       -0.38750        0.21250        0.00000
 BRILLOUIN|   190           0.00125       -0.38750        0.23750        0.00000
 BRILLOUIN|   191           0.00125       -0.38750        0.26250        0.00000
 BRILLOUIN|   192           0.00125       -0.38750        0.28750        0.00000
 BRILLOUIN|   193           0.00125       -0.38750        0.31250        0.00000
 BRILLOUIN|   194           0.00125       -0.38750        0.33750        0.00000
 BRILLOUIN|   195           0.00125       -0.38750        0.36250        0.00000
 BRILLOUIN|   196           0.00125       -0.38750        0.38750        0.00000
 BRILLOUIN|   197           0.00125       -0.38750        0.41250        0.00000
 BRILLOUIN|   198           0.00125       -0.38750        0.43750        0.00000
 BRILLOUIN|   199           0.00125       -0.38750        0.46250        0.00000
 BRILLOUIN|   200           0.00125       -0.38750        0.48750        0.00000
 BRILLOUIN|   201           0.00125       -0.36250       -0.48750        0.00000
 BRILLOUIN|   202           0.00125       -0.36250       -0.46250        0.00000
 BRILLOUIN|   203           0.00125       -0.36250       -0.43750        0.00000
 BRILLOUIN|   204           0.00125       -0.36250       -0.41250        0.00000
 BRILLOUIN|   205           0.00125       -0.36250       -0.38750        0.00000
 BRILLOUIN|   206           0.00125       -0.36250       -0.36250        0.00000
 BRILLOUIN|   207           0.00125       -0.36250       -0.33750        0.00000
 BRILLOUIN|   208           0.00125       -0.36250       -0.31250        0.00000
 BRILLOUIN|   209           0.00125       -0.36250       -0.28750        0.00000
 BRILLOUIN|   210           0.00125       -0.36250       -0.26250        0.00000
 BRILLOUIN|   211           0.00125       -0.36250       -0.23750        0.00000
 BRILLOUIN|   212           0.00125       -0.36250       -0.21250        0.00000
 BRILLOUIN|   213           0.00125       -0.36250       -0.18750        0.00000
 BRILLOUIN|   214           0.00125       -0.36250       -0.16250        0.00000
 BRILLOUIN|   215           0.00125       -0.36250       -0.13750        0.00000
 BRILLOUIN|   216           0.00125       -0.36250       -0.11250        0.00000
 BRILLOUIN|   217           0.00125       -0.36250       -0.08750        0.00000
 BRILLOUIN|   218           0.00125       -0.36250       -0.06250        0.00000
 BRILLOUIN|   219           0.00125       -0.36250       -0.03750        0.00000
 BRILLOUIN|   220           0.00125       -0.36250       -0.01250        0.00000
 BRILLOUIN|   221           0.00125       -0.36250        0.01250        0.00000
 BRILLOUIN|   222           0.00125       -0.36250        0.03750        0.00000
 BRILLOUIN|   223           0.00125       -0.36250        0.06250        0.00000
 BRILLOUIN|   224           0.00125       -0.36250        0.08750        0.00000
 BRILLOUIN|   225           0.00125       -0.36250        0.11250        0.00000
 BRILLOUIN|   226           0.00125       -0.36250        0.13750        0.00000
 BRILLOUIN|   227           0.00125       -0.36250        0.16250        0.00000
 BRILLOUIN|   228           0.00125       -0.36250        0.18750        0.00000
 BRILLOUIN|   229           0.00125       -0.36250        0.21250        0.00000
 BRILLOUIN|   230           0.00125       -0.36250        0.23750        0.00000
 BRILLOUIN|   231           0.00125       -0.36250        0.26250        0.00000
 BRILLOUIN|   232           0.00125       -0.36250        0.28750        0.00000
 BRILLOUIN|   233           0.00125       -0.36250        0.31250        0.00000
 BRILLOUIN|   234           0.00125       -0.36250        0.33750        0.00000
 BRILLOUIN|   235           0.00125       -0.36250        0.36250        0.00000
 BRILLOUIN|   236           0.00125       -0.36250        0.38750        0.00000
 BRILLOUIN|   237           0.00125       -0.36250        0.41250        0.00000
 BRILLOUIN|   238           0.00125       -0.36250        0.43750        0.00000
 BRILLOUIN|   239           0.00125       -0.36250        0.46250        0.00000
 BRILLOUIN|   240           0.00125       -0.36250        0.48750        0.00000
 BRILLOUIN|   241           0.00125       -0.33750       -0.48750        0.00000
 BRILLOUIN|   242           0.00125       -0.33750       -0.46250        0.00000
 BRILLOUIN|   243           0.00125       -0.33750       -0.43750        0.00000
 BRILLOUIN|   244           0.00125       -0.33750       -0.41250        0.00000
 BRILLOUIN|   245           0.00125       -0.33750       -0.38750        0.00000
 BRILLOUIN|   246           0.00125       -0.33750       -0.36250        0.00000
 BRILLOUIN|   247           0.00125       -0.33750       -0.33750        0.00000
 BRILLOUIN|   248           0.00125       -0.33750       -0.31250        0.00000
 BRILLOUIN|   249           0.00125       -0.33750       -0.28750        0.00000
 BRILLOUIN|   250           0.00125       -0.33750       -0.26250        0.00000
 BRILLOUIN|   251           0.00125       -0.33750       -0.23750        0.00000
 BRILLOUIN|   252           0.00125       -0.33750       -0.21250        0.00000
 BRILLOUIN|   253           0.00125       -0.33750       -0.18750        0.00000
 BRILLOUIN|   254           0.00125       -0.33750       -0.16250        0.00000
 BRILLOUIN|   255           0.00125       -0.33750       -0.13750        0.00000
 BRILLOUIN|   256           0.00125       -0.33750       -0.11250        0.00000
 BRILLOUIN|   257           0.00125       -0.33750       -0.08750        0.00000
 BRILLOUIN|   258           0.00125       -0.33750       -0.06250        0.00000
 BRILLOUIN|   259           0.00125       -0.33750       -0.03750        0.00000
 BRILLOUIN|   260           0.00125       -0.33750       -0.01250        0.00000
 BRILLOUIN|   261           0.00125       -0.33750        0.01250        0.00000
 BRILLOUIN|   262           0.00125       -0.33750        0.03750        0.00000
 BRILLOUIN|   263           0.00125       -0.33750        0.06250        0.00000
 BRILLOUIN|   264           0.00125       -0.33750        0.08750        0.00000
 BRILLOUIN|   265           0.00125       -0.33750        0.11250        0.00000
 BRILLOUIN|   266           0.00125       -0.33750        0.13750        0.00000
 BRILLOUIN|   267           0.00125       -0.33750        0.16250        0.00000
 BRILLOUIN|   268           0.00125       -0.33750        0.18750        0.00000
 BRILLOUIN|   269           0.00125       -0.33750        0.21250        0.00000
 BRILLOUIN|   270           0.00125       -0.33750        0.23750        0.00000
 BRILLOUIN|   271           0.00125       -0.33750        0.26250        0.00000
 BRILLOUIN|   272           0.00125       -0.33750        0.28750        0.00000
 BRILLOUIN|   273           0.00125       -0.33750        0.31250        0.00000
 BRILLOUIN|   274           0.00125       -0.33750        0.33750        0.00000
 BRILLOUIN|   275           0.00125       -0.33750        0.36250        0.00000
 BRILLOUIN|   276           0.00125       -0.33750        0.38750        0.00000
 BRILLOUIN|   277           0.00125       -0.33750        0.41250        0.00000
 BRILLOUIN|   278           0.00125       -0.33750        0.43750        0.00000
 BRILLOUIN|   279           0.00125       -0.33750        0.46250        0.00000
 BRILLOUIN|   280           0.00125       -0.33750        0.48750        0.00000
 BRILLOUIN|   281           0.00125       -0.31250       -0.48750        0.00000
 BRILLOUIN|   282           0.00125       -0.31250       -0.46250        0.00000
 BRILLOUIN|   283           0.00125       -0.31250       -0.43750        0.00000
 BRILLOUIN|   284           0.00125       -0.31250       -0.41250        0.00000
 BRILLOUIN|   285           0.00125       -0.31250       -0.38750        0.00000
 BRILLOUIN|   286           0.00125       -0.31250       -0.36250        0.00000
 BRILLOUIN|   287           0.00125       -0.31250       -0.33750        0.00000
 BRILLOUIN|   288           0.00125       -0.31250       -0.31250        0.00000
 BRILLOUIN|   289           0.00125       -0.31250       -0.28750        0.00000
 BRILLOUIN|   290           0.00125       -0.31250       -0.26250        0.00000
 BRILLOUIN|   291           0.00125       -0.31250       -0.23750        0.00000
 BRILLOUIN|   292           0.00125       -0.31250       -0.21250        0.00000
 BRILLOUIN|   293           0.00125       -0.31250       -0.18750        0.00000
 BRILLOUIN|   294           0.00125       -0.31250       -0.16250        0.00000
 BRILLOUIN|   295           0.00125       -0.31250       -0.13750        0.00000
 BRILLOUIN|   296           0.00125       -0.31250       -0.11250        0.00000
 BRILLOUIN|   297           0.00125       -0.31250       -0.08750        0.00000
 BRILLOUIN|   298           0.00125       -0.31250       -0.06250        0.00000
 BRILLOUIN|   299           0.00125       -0.31250       -0.03750        0.00000
 BRILLOUIN|   300           0.00125       -0.31250       -0.01250        0.00000
 BRILLOUIN|   301           0.00125       -0.31250        0.01250        0.00000
 BRILLOUIN|   302           0.00125       -0.31250        0.03750        0.00000
 BRILLOUIN|   303           0.00125       -0.31250        0.06250        0.00000
 BRILLOUIN|   304           0.00125       -0.31250        0.08750        0.00000
 BRILLOUIN|   305           0.00125       -0.31250        0.11250        0.00000
 BRILLOUIN|   306           0.00125       -0.31250        0.13750        0.00000
 BRILLOUIN|   307           0.00125       -0.31250        0.16250        0.00000
 BRILLOUIN|   308           0.00125       -0.31250        0.18750        0.00000
 BRILLOUIN|   309           0.00125       -0.31250        0.21250        0.00000
 BRILLOUIN|   310           0.00125       -0.31250        0.23750        0.00000
 BRILLOUIN|   311           0.00125       -0.31250        0.26250        0.00000
 BRILLOUIN|   312           0.00125       -0.31250        0.28750        0.00000
 BRILLOUIN|   313           0.00125       -0.31250        0.31250        0.00000
 BRILLOUIN|   314           0.00125       -0.31250        0.33750        0.00000
 BRILLOUIN|   315           0.00125       -0.31250        0.36250        0.00000
 BRILLOUIN|   316           0.00125       -0.31250        0.38750        0.00000
 BRILLOUIN|   317           0.00125       -0.31250        0.41250        0.00000
 BRILLOUIN|   318           0.00125       -0.31250        0.43750        0.00000
 BRILLOUIN|   319           0.00125       -0.31250        0.46250        0.00000
 BRILLOUIN|   320           0.00125       -0.31250        0.48750        0.00000
 BRILLOUIN|   321           0.00125       -0.28750       -0.48750        0.00000
 BRILLOUIN|   322           0.00125       -0.28750       -0.46250        0.00000
 BRILLOUIN|   323           0.00125       -0.28750       -0.43750        0.00000
 BRILLOUIN|   324           0.00125       -0.28750       -0.41250        0.00000
 BRILLOUIN|   325           0.00125       -0.28750       -0.38750        0.00000
 BRILLOUIN|   326           0.00125       -0.28750       -0.36250        0.00000
 BRILLOUIN|   327           0.00125       -0.28750       -0.33750        0.00000
 BRILLOUIN|   328           0.00125       -0.28750       -0.31250        0.00000
 BRILLOUIN|   329           0.00125       -0.28750       -0.28750        0.00000
 BRILLOUIN|   330           0.00125       -0.28750       -0.26250        0.00000
 BRILLOUIN|   331           0.00125       -0.28750       -0.23750        0.00000
 BRILLOUIN|   332           0.00125       -0.28750       -0.21250        0.00000
 BRILLOUIN|   333           0.00125       -0.28750       -0.18750        0.00000
 BRILLOUIN|   334           0.00125       -0.28750       -0.16250        0.00000
 BRILLOUIN|   335           0.00125       -0.28750       -0.13750        0.00000
 BRILLOUIN|   336           0.00125       -0.28750       -0.11250        0.00000
 BRILLOUIN|   337           0.00125       -0.28750       -0.08750        0.00000
 BRILLOUIN|   338           0.00125       -0.28750       -0.06250        0.00000
 BRILLOUIN|   339           0.00125       -0.28750       -0.03750        0.00000
 BRILLOUIN|   340           0.00125       -0.28750       -0.01250        0.00000
 BRILLOUIN|   341           0.00125       -0.28750        0.01250        0.00000
 BRILLOUIN|   342           0.00125       -0.28750        0.03750        0.00000
 BRILLOUIN|   343           0.00125       -0.28750        0.06250        0.00000
 BRILLOUIN|   344           0.00125       -0.28750        0.08750        0.00000
 BRILLOUIN|   345           0.00125       -0.28750        0.11250        0.00000
 BRILLOUIN|   346           0.00125       -0.28750        0.13750        0.00000
 BRILLOUIN|   347           0.00125       -0.28750        0.16250        0.00000
 BRILLOUIN|   348           0.00125       -0.28750        0.18750        0.00000
 BRILLOUIN|   349           0.00125       -0.28750        0.21250        0.00000
 BRILLOUIN|   350           0.00125       -0.28750        0.23750        0.00000
 BRILLOUIN|   351           0.00125       -0.28750        0.26250        0.00000
 BRILLOUIN|   352           0.00125       -0.28750        0.28750        0.00000
 BRILLOUIN|   353           0.00125       -0.28750        0.31250        0.00000
 BRILLOUIN|   354           0.00125       -0.28750        0.33750        0.00000
 BRILLOUIN|   355           0.00125       -0.28750        0.36250        0.00000
 BRILLOUIN|   356           0.00125       -0.28750        0.38750        0.00000
 BRILLOUIN|   357           0.00125       -0.28750        0.41250        0.00000
 BRILLOUIN|   358           0.00125       -0.28750        0.43750        0.00000
 BRILLOUIN|   359           0.00125       -0.28750        0.46250        0.00000
 BRILLOUIN|   360           0.00125       -0.28750        0.48750        0.00000
 BRILLOUIN|   361           0.00125       -0.26250       -0.48750        0.00000
 BRILLOUIN|   362           0.00125       -0.26250       -0.46250        0.00000
 BRILLOUIN|   363           0.00125       -0.26250       -0.43750        0.00000
 BRILLOUIN|   364           0.00125       -0.26250       -0.41250        0.00000
 BRILLOUIN|   365           0.00125       -0.26250       -0.38750        0.00000
 BRILLOUIN|   366           0.00125       -0.26250       -0.36250        0.00000
 BRILLOUIN|   367           0.00125       -0.26250       -0.33750        0.00000
 BRILLOUIN|   368           0.00125       -0.26250       -0.31250        0.00000
 BRILLOUIN|   369           0.00125       -0.26250       -0.28750        0.00000
 BRILLOUIN|   370           0.00125       -0.26250       -0.26250        0.00000
 BRILLOUIN|   371           0.00125       -0.26250       -0.23750        0.00000
 BRILLOUIN|   372           0.00125       -0.26250       -0.21250        0.00000
 BRILLOUIN|   373           0.00125       -0.26250       -0.18750        0.00000
 BRILLOUIN|   374           0.00125       -0.26250       -0.16250        0.00000
 BRILLOUIN|   375           0.00125       -0.26250       -0.13750        0.00000
 BRILLOUIN|   376           0.00125       -0.26250       -0.11250        0.00000
 BRILLOUIN|   377           0.00125       -0.26250       -0.08750        0.00000
 BRILLOUIN|   378           0.00125       -0.26250       -0.06250        0.00000
 BRILLOUIN|   379           0.00125       -0.26250       -0.03750        0.00000
 BRILLOUIN|   380           0.00125       -0.26250       -0.01250        0.00000
 BRILLOUIN|   381           0.00125       -0.26250        0.01250        0.00000
 BRILLOUIN|   382           0.00125       -0.26250        0.03750        0.00000
 BRILLOUIN|   383           0.00125       -0.26250        0.06250        0.00000
 BRILLOUIN|   384           0.00125       -0.26250        0.08750        0.00000
 BRILLOUIN|   385           0.00125       -0.26250        0.11250        0.00000
 BRILLOUIN|   386           0.00125       -0.26250        0.13750        0.00000
 BRILLOUIN|   387           0.00125       -0.26250        0.16250        0.00000
 BRILLOUIN|   388           0.00125       -0.26250        0.18750        0.00000
 BRILLOUIN|   389           0.00125       -0.26250        0.21250        0.00000
 BRILLOUIN|   390           0.00125       -0.26250        0.23750        0.00000
 BRILLOUIN|   391           0.00125       -0.26250        0.26250        0.00000
 BRILLOUIN|   392           0.00125       -0.26250        0.28750        0.00000
 BRILLOUIN|   393           0.00125       -0.26250        0.31250        0.00000
 BRILLOUIN|   394           0.00125       -0.26250        0.33750        0.00000
 BRILLOUIN|   395           0.00125       -0.26250        0.36250        0.00000
 BRILLOUIN|   396           0.00125       -0.26250        0.38750        0.00000
 BRILLOUIN|   397           0.00125       -0.26250        0.41250        0.00000
 BRILLOUIN|   398           0.00125       -0.26250        0.43750        0.00000
 BRILLOUIN|   399           0.00125       -0.26250        0.46250        0.00000
 BRILLOUIN|   400           0.00125       -0.26250        0.48750        0.00000
 BRILLOUIN|   401           0.00125       -0.23750       -0.48750        0.00000
 BRILLOUIN|   402           0.00125       -0.23750       -0.46250        0.00000
 BRILLOUIN|   403           0.00125       -0.23750       -0.43750        0.00000
 BRILLOUIN|   404           0.00125       -0.23750       -0.41250        0.00000
 BRILLOUIN|   405           0.00125       -0.23750       -0.38750        0.00000
 BRILLOUIN|   406           0.00125       -0.23750       -0.36250        0.00000
 BRILLOUIN|   407           0.00125       -0.23750       -0.33750        0.00000
 BRILLOUIN|   408           0.00125       -0.23750       -0.31250        0.00000
 BRILLOUIN|   409           0.00125       -0.23750       -0.28750        0.00000
 BRILLOUIN|   410           0.00125       -0.23750       -0.26250        0.00000
 BRILLOUIN|   411           0.00125       -0.23750       -0.23750        0.00000
 BRILLOUIN|   412           0.00125       -0.23750       -0.21250        0.00000
 BRILLOUIN|   413           0.00125       -0.23750       -0.18750        0.00000
 BRILLOUIN|   414           0.00125       -0.23750       -0.16250        0.00000
 BRILLOUIN|   415           0.00125       -0.23750       -0.13750        0.00000
 BRILLOUIN|   416           0.00125       -0.23750       -0.11250        0.00000
 BRILLOUIN|   417           0.00125       -0.23750       -0.08750        0.00000
 BRILLOUIN|   418           0.00125       -0.23750       -0.06250        0.00000
 BRILLOUIN|   419           0.00125       -0.23750       -0.03750        0.00000
 BRILLOUIN|   420           0.00125       -0.23750       -0.01250        0.00000
 BRILLOUIN|   421           0.00125       -0.23750        0.01250        0.00000
 BRILLOUIN|   422           0.00125       -0.23750        0.03750        0.00000
 BRILLOUIN|   423           0.00125       -0.23750        0.06250        0.00000
 BRILLOUIN|   424           0.00125       -0.23750        0.08750        0.00000
 BRILLOUIN|   425           0.00125       -0.23750        0.11250        0.00000
 BRILLOUIN|   426           0.00125       -0.23750        0.13750        0.00000
 BRILLOUIN|   427           0.00125       -0.23750        0.16250        0.00000
 BRILLOUIN|   428           0.00125       -0.23750        0.18750        0.00000
 BRILLOUIN|   429           0.00125       -0.23750        0.21250        0.00000
 BRILLOUIN|   430           0.00125       -0.23750        0.23750        0.00000
 BRILLOUIN|   431           0.00125       -0.23750        0.26250        0.00000
 BRILLOUIN|   432           0.00125       -0.23750        0.28750        0.00000
 BRILLOUIN|   433           0.00125       -0.23750        0.31250        0.00000
 BRILLOUIN|   434           0.00125       -0.23750        0.33750        0.00000
 BRILLOUIN|   435           0.00125       -0.23750        0.36250        0.00000
 BRILLOUIN|   436           0.00125       -0.23750        0.38750        0.00000
 BRILLOUIN|   437           0.00125       -0.23750        0.41250        0.00000
 BRILLOUIN|   438           0.00125       -0.23750        0.43750        0.00000
 BRILLOUIN|   439           0.00125       -0.23750        0.46250        0.00000
 BRILLOUIN|   440           0.00125       -0.23750        0.48750        0.00000
 BRILLOUIN|   441           0.00125       -0.21250       -0.48750        0.00000
 BRILLOUIN|   442           0.00125       -0.21250       -0.46250        0.00000
 BRILLOUIN|   443           0.00125       -0.21250       -0.43750        0.00000
 BRILLOUIN|   444           0.00125       -0.21250       -0.41250        0.00000
 BRILLOUIN|   445           0.00125       -0.21250       -0.38750        0.00000
 BRILLOUIN|   446           0.00125       -0.21250       -0.36250        0.00000
 BRILLOUIN|   447           0.00125       -0.21250       -0.33750        0.00000
 BRILLOUIN|   448           0.00125       -0.21250       -0.31250        0.00000
 BRILLOUIN|   449           0.00125       -0.21250       -0.28750        0.00000
 BRILLOUIN|   450           0.00125       -0.21250       -0.26250        0.00000
 BRILLOUIN|   451           0.00125       -0.21250       -0.23750        0.00000
 BRILLOUIN|   452           0.00125       -0.21250       -0.21250        0.00000
 BRILLOUIN|   453           0.00125       -0.21250       -0.18750        0.00000
 BRILLOUIN|   454           0.00125       -0.21250       -0.16250        0.00000
 BRILLOUIN|   455           0.00125       -0.21250       -0.13750        0.00000
 BRILLOUIN|   456           0.00125       -0.21250       -0.11250        0.00000
 BRILLOUIN|   457           0.00125       -0.21250       -0.08750        0.00000
 BRILLOUIN|   458           0.00125       -0.21250       -0.06250        0.00000
 BRILLOUIN|   459           0.00125       -0.21250       -0.03750        0.00000
 BRILLOUIN|   460           0.00125       -0.21250       -0.01250        0.00000
 BRILLOUIN|   461           0.00125       -0.21250        0.01250        0.00000
 BRILLOUIN|   462           0.00125       -0.21250        0.03750        0.00000
 BRILLOUIN|   463           0.00125       -0.21250        0.06250        0.00000
 BRILLOUIN|   464           0.00125       -0.21250        0.08750        0.00000
 BRILLOUIN|   465           0.00125       -0.21250        0.11250        0.00000
 BRILLOUIN|   466           0.00125       -0.21250        0.13750        0.00000
 BRILLOUIN|   467           0.00125       -0.21250        0.16250        0.00000
 BRILLOUIN|   468           0.00125       -0.21250        0.18750        0.00000
 BRILLOUIN|   469           0.00125       -0.21250        0.21250        0.00000
 BRILLOUIN|   470           0.00125       -0.21250        0.23750        0.00000
 BRILLOUIN|   471           0.00125       -0.21250        0.26250        0.00000
 BRILLOUIN|   472           0.00125       -0.21250        0.28750        0.00000
 BRILLOUIN|   473           0.00125       -0.21250        0.31250        0.00000
 BRILLOUIN|   474           0.00125       -0.21250        0.33750        0.00000
 BRILLOUIN|   475           0.00125       -0.21250        0.36250        0.00000
 BRILLOUIN|   476           0.00125       -0.21250        0.38750        0.00000
 BRILLOUIN|   477           0.00125       -0.21250        0.41250        0.00000
 BRILLOUIN|   478           0.00125       -0.21250        0.43750        0.00000
 BRILLOUIN|   479           0.00125       -0.21250        0.46250        0.00000
 BRILLOUIN|   480           0.00125       -0.21250        0.48750        0.00000
 BRILLOUIN|   481           0.00125       -0.18750       -0.48750        0.00000
 BRILLOUIN|   482           0.00125       -0.18750       -0.46250        0.00000
 BRILLOUIN|   483           0.00125       -0.18750       -0.43750        0.00000
 BRILLOUIN|   484           0.00125       -0.18750       -0.41250        0.00000
 BRILLOUIN|   485           0.00125       -0.18750       -0.38750        0.00000
 BRILLOUIN|   486           0.00125       -0.18750       -0.36250        0.00000
 BRILLOUIN|   487           0.00125       -0.18750       -0.33750        0.00000
 BRILLOUIN|   488           0.00125       -0.18750       -0.31250        0.00000
 BRILLOUIN|   489           0.00125       -0.18750       -0.28750        0.00000
 BRILLOUIN|   490           0.00125       -0.18750       -0.26250        0.00000
 BRILLOUIN|   491           0.00125       -0.18750       -0.23750        0.00000
 BRILLOUIN|   492           0.00125       -0.18750       -0.21250        0.00000
 BRILLOUIN|   493           0.00125       -0.18750       -0.18750        0.00000
 BRILLOUIN|   494           0.00125       -0.18750       -0.16250        0.00000
 BRILLOUIN|   495           0.00125       -0.18750       -0.13750        0.00000
 BRILLOUIN|   496           0.00125       -0.18750       -0.11250        0.00000
 BRILLOUIN|   497           0.00125       -0.18750       -0.08750        0.00000
 BRILLOUIN|   498           0.00125       -0.18750       -0.06250        0.00000
 BRILLOUIN|   499           0.00125       -0.18750       -0.03750        0.00000
 BRILLOUIN|   500           0.00125       -0.18750       -0.01250        0.00000
 BRILLOUIN|   501           0.00125       -0.18750        0.01250        0.00000
 BRILLOUIN|   502           0.00125       -0.18750        0.03750        0.00000
 BRILLOUIN|   503           0.00125       -0.18750        0.06250        0.00000
 BRILLOUIN|   504           0.00125       -0.18750        0.08750        0.00000
 BRILLOUIN|   505           0.00125       -0.18750        0.11250        0.00000
 BRILLOUIN|   506           0.00125       -0.18750        0.13750        0.00000
 BRILLOUIN|   507           0.00125       -0.18750        0.16250        0.00000
 BRILLOUIN|   508           0.00125       -0.18750        0.18750        0.00000
 BRILLOUIN|   509           0.00125       -0.18750        0.21250        0.00000
 BRILLOUIN|   510           0.00125       -0.18750        0.23750        0.00000
 BRILLOUIN|   511           0.00125       -0.18750        0.26250        0.00000
 BRILLOUIN|   512           0.00125       -0.18750        0.28750        0.00000
 BRILLOUIN|   513           0.00125       -0.18750        0.31250        0.00000
 BRILLOUIN|   514           0.00125       -0.18750        0.33750        0.00000
 BRILLOUIN|   515           0.00125       -0.18750        0.36250        0.00000
 BRILLOUIN|   516           0.00125       -0.18750        0.38750        0.00000
 BRILLOUIN|   517           0.00125       -0.18750        0.41250        0.00000
 BRILLOUIN|   518           0.00125       -0.18750        0.43750        0.00000
 BRILLOUIN|   519           0.00125       -0.18750        0.46250        0.00000
 BRILLOUIN|   520           0.00125       -0.18750        0.48750        0.00000
 BRILLOUIN|   521           0.00125       -0.16250       -0.48750        0.00000
 BRILLOUIN|   522           0.00125       -0.16250       -0.46250        0.00000
 BRILLOUIN|   523           0.00125       -0.16250       -0.43750        0.00000
 BRILLOUIN|   524           0.00125       -0.16250       -0.41250        0.00000
 BRILLOUIN|   525           0.00125       -0.16250       -0.38750        0.00000
 BRILLOUIN|   526           0.00125       -0.16250       -0.36250        0.00000
 BRILLOUIN|   527           0.00125       -0.16250       -0.33750        0.00000
 BRILLOUIN|   528           0.00125       -0.16250       -0.31250        0.00000
 BRILLOUIN|   529           0.00125       -0.16250       -0.28750        0.00000
 BRILLOUIN|   530           0.00125       -0.16250       -0.26250        0.00000
 BRILLOUIN|   531           0.00125       -0.16250       -0.23750        0.00000
 BRILLOUIN|   532           0.00125       -0.16250       -0.21250        0.00000
 BRILLOUIN|   533           0.00125       -0.16250       -0.18750        0.00000
 BRILLOUIN|   534           0.00125       -0.16250       -0.16250        0.00000
 BRILLOUIN|   535           0.00125       -0.16250       -0.13750        0.00000
 BRILLOUIN|   536           0.00125       -0.16250       -0.11250        0.00000
 BRILLOUIN|   537           0.00125       -0.16250       -0.08750        0.00000
 BRILLOUIN|   538           0.00125       -0.16250       -0.06250        0.00000
 BRILLOUIN|   539           0.00125       -0.16250       -0.03750        0.00000
 BRILLOUIN|   540           0.00125       -0.16250       -0.01250        0.00000
 BRILLOUIN|   541           0.00125       -0.16250        0.01250        0.00000
 BRILLOUIN|   542           0.00125       -0.16250        0.03750        0.00000
 BRILLOUIN|   543           0.00125       -0.16250        0.06250        0.00000
 BRILLOUIN|   544           0.00125       -0.16250        0.08750        0.00000
 BRILLOUIN|   545           0.00125       -0.16250        0.11250        0.00000
 BRILLOUIN|   546           0.00125       -0.16250        0.13750        0.00000
 BRILLOUIN|   547           0.00125       -0.16250        0.16250        0.00000
 BRILLOUIN|   548           0.00125       -0.16250        0.18750        0.00000
 BRILLOUIN|   549           0.00125       -0.16250        0.21250        0.00000
 BRILLOUIN|   550           0.00125       -0.16250        0.23750        0.00000
 BRILLOUIN|   551           0.00125       -0.16250        0.26250        0.00000
 BRILLOUIN|   552           0.00125       -0.16250        0.28750        0.00000
 BRILLOUIN|   553           0.00125       -0.16250        0.31250        0.00000
 BRILLOUIN|   554           0.00125       -0.16250        0.33750        0.00000
 BRILLOUIN|   555           0.00125       -0.16250        0.36250        0.00000
 BRILLOUIN|   556           0.00125       -0.16250        0.38750        0.00000
 BRILLOUIN|   557           0.00125       -0.16250        0.41250        0.00000
 BRILLOUIN|   558           0.00125       -0.16250        0.43750        0.00000
 BRILLOUIN|   559           0.00125       -0.16250        0.46250        0.00000
 BRILLOUIN|   560           0.00125       -0.16250        0.48750        0.00000
 BRILLOUIN|   561           0.00125       -0.13750       -0.48750        0.00000
 BRILLOUIN|   562           0.00125       -0.13750       -0.46250        0.00000
 BRILLOUIN|   563           0.00125       -0.13750       -0.43750        0.00000
 BRILLOUIN|   564           0.00125       -0.13750       -0.41250        0.00000
 BRILLOUIN|   565           0.00125       -0.13750       -0.38750        0.00000
 BRILLOUIN|   566           0.00125       -0.13750       -0.36250        0.00000
 BRILLOUIN|   567           0.00125       -0.13750       -0.33750        0.00000
 BRILLOUIN|   568           0.00125       -0.13750       -0.31250        0.00000
 BRILLOUIN|   569           0.00125       -0.13750       -0.28750        0.00000
 BRILLOUIN|   570           0.00125       -0.13750       -0.26250        0.00000
 BRILLOUIN|   571           0.00125       -0.13750       -0.23750        0.00000
 BRILLOUIN|   572           0.00125       -0.13750       -0.21250        0.00000
 BRILLOUIN|   573           0.00125       -0.13750       -0.18750        0.00000
 BRILLOUIN|   574           0.00125       -0.13750       -0.16250        0.00000
 BRILLOUIN|   575           0.00125       -0.13750       -0.13750        0.00000
 BRILLOUIN|   576           0.00125       -0.13750       -0.11250        0.00000
 BRILLOUIN|   577           0.00125       -0.13750       -0.08750        0.00000
 BRILLOUIN|   578           0.00125       -0.13750       -0.06250        0.00000
 BRILLOUIN|   579           0.00125       -0.13750       -0.03750        0.00000
 BRILLOUIN|   580           0.00125       -0.13750       -0.01250        0.00000
 BRILLOUIN|   581           0.00125       -0.13750        0.01250        0.00000
 BRILLOUIN|   582           0.00125       -0.13750        0.03750        0.00000
 BRILLOUIN|   583           0.00125       -0.13750        0.06250        0.00000
 BRILLOUIN|   584           0.00125       -0.13750        0.08750        0.00000
 BRILLOUIN|   585           0.00125       -0.13750        0.11250        0.00000
 BRILLOUIN|   586           0.00125       -0.13750        0.13750        0.00000
 BRILLOUIN|   587           0.00125       -0.13750        0.16250        0.00000
 BRILLOUIN|   588           0.00125       -0.13750        0.18750        0.00000
 BRILLOUIN|   589           0.00125       -0.13750        0.21250        0.00000
 BRILLOUIN|   590           0.00125       -0.13750        0.23750        0.00000
 BRILLOUIN|   591           0.00125       -0.13750        0.26250        0.00000
 BRILLOUIN|   592           0.00125       -0.13750        0.28750        0.00000
 BRILLOUIN|   593           0.00125       -0.13750        0.31250        0.00000
 BRILLOUIN|   594           0.00125       -0.13750        0.33750        0.00000
 BRILLOUIN|   595           0.00125       -0.13750        0.36250        0.00000
 BRILLOUIN|   596           0.00125       -0.13750        0.38750        0.00000
 BRILLOUIN|   597           0.00125       -0.13750        0.41250        0.00000
 BRILLOUIN|   598           0.00125       -0.13750        0.43750        0.00000
 BRILLOUIN|   599           0.00125       -0.13750        0.46250        0.00000
 BRILLOUIN|   600           0.00125       -0.13750        0.48750        0.00000
 BRILLOUIN|   601           0.00125       -0.11250       -0.48750        0.00000
 BRILLOUIN|   602           0.00125       -0.11250       -0.46250        0.00000
 BRILLOUIN|   603           0.00125       -0.11250       -0.43750        0.00000
 BRILLOUIN|   604           0.00125       -0.11250       -0.41250        0.00000
 BRILLOUIN|   605           0.00125       -0.11250       -0.38750        0.00000
 BRILLOUIN|   606           0.00125       -0.11250       -0.36250        0.00000
 BRILLOUIN|   607           0.00125       -0.11250       -0.33750        0.00000
 BRILLOUIN|   608           0.00125       -0.11250       -0.31250        0.00000
 BRILLOUIN|   609           0.00125       -0.11250       -0.28750        0.00000
 BRILLOUIN|   610           0.00125       -0.11250       -0.26250        0.00000
 BRILLOUIN|   611           0.00125       -0.11250       -0.23750        0.00000
 BRILLOUIN|   612           0.00125       -0.11250       -0.21250        0.00000
 BRILLOUIN|   613           0.00125       -0.11250       -0.18750        0.00000
 BRILLOUIN|   614           0.00125       -0.11250       -0.16250        0.00000
 BRILLOUIN|   615           0.00125       -0.11250       -0.13750        0.00000
 BRILLOUIN|   616           0.00125       -0.11250       -0.11250        0.00000
 BRILLOUIN|   617           0.00125       -0.11250       -0.08750        0.00000
 BRILLOUIN|   618           0.00125       -0.11250       -0.06250        0.00000
 BRILLOUIN|   619           0.00125       -0.11250       -0.03750        0.00000
 BRILLOUIN|   620           0.00125       -0.11250       -0.01250        0.00000
 BRILLOUIN|   621           0.00125       -0.11250        0.01250        0.00000
 BRILLOUIN|   622           0.00125       -0.11250        0.03750        0.00000
 BRILLOUIN|   623           0.00125       -0.11250        0.06250        0.00000
 BRILLOUIN|   624           0.00125       -0.11250        0.08750        0.00000
 BRILLOUIN|   625           0.00125       -0.11250        0.11250        0.00000
 BRILLOUIN|   626           0.00125       -0.11250        0.13750        0.00000
 BRILLOUIN|   627           0.00125       -0.11250        0.16250        0.00000
 BRILLOUIN|   628           0.00125       -0.11250        0.18750        0.00000
 BRILLOUIN|   629           0.00125       -0.11250        0.21250        0.00000
 BRILLOUIN|   630           0.00125       -0.11250        0.23750        0.00000
 BRILLOUIN|   631           0.00125       -0.11250        0.26250        0.00000
 BRILLOUIN|   632           0.00125       -0.11250        0.28750        0.00000
 BRILLOUIN|   633           0.00125       -0.11250        0.31250        0.00000
 BRILLOUIN|   634           0.00125       -0.11250        0.33750        0.00000
 BRILLOUIN|   635           0.00125       -0.11250        0.36250        0.00000
 BRILLOUIN|   636           0.00125       -0.11250        0.38750        0.00000
 BRILLOUIN|   637           0.00125       -0.11250        0.41250        0.00000
 BRILLOUIN|   638           0.00125       -0.11250        0.43750        0.00000
 BRILLOUIN|   639           0.00125       -0.11250        0.46250        0.00000
 BRILLOUIN|   640           0.00125       -0.11250        0.48750        0.00000
 BRILLOUIN|   641           0.00125       -0.08750       -0.48750        0.00000
 BRILLOUIN|   642           0.00125       -0.08750       -0.46250        0.00000
 BRILLOUIN|   643           0.00125       -0.08750       -0.43750        0.00000
 BRILLOUIN|   644           0.00125       -0.08750       -0.41250        0.00000
 BRILLOUIN|   645           0.00125       -0.08750       -0.38750        0.00000
 BRILLOUIN|   646           0.00125       -0.08750       -0.36250        0.00000
 BRILLOUIN|   647           0.00125       -0.08750       -0.33750        0.00000
 BRILLOUIN|   648           0.00125       -0.08750       -0.31250        0.00000
 BRILLOUIN|   649           0.00125       -0.08750       -0.28750        0.00000
 BRILLOUIN|   650           0.00125       -0.08750       -0.26250        0.00000
 BRILLOUIN|   651           0.00125       -0.08750       -0.23750        0.00000
 BRILLOUIN|   652           0.00125       -0.08750       -0.21250        0.00000
 BRILLOUIN|   653           0.00125       -0.08750       -0.18750        0.00000
 BRILLOUIN|   654           0.00125       -0.08750       -0.16250        0.00000
 BRILLOUIN|   655           0.00125       -0.08750       -0.13750        0.00000
 BRILLOUIN|   656           0.00125       -0.08750       -0.11250        0.00000
 BRILLOUIN|   657           0.00125       -0.08750       -0.08750        0.00000
 BRILLOUIN|   658           0.00125       -0.08750       -0.06250        0.00000
 BRILLOUIN|   659           0.00125       -0.08750       -0.03750        0.00000
 BRILLOUIN|   660           0.00125       -0.08750       -0.01250        0.00000
 BRILLOUIN|   661           0.00125       -0.08750        0.01250        0.00000
 BRILLOUIN|   662           0.00125       -0.08750        0.03750        0.00000
 BRILLOUIN|   663           0.00125       -0.08750        0.06250        0.00000
 BRILLOUIN|   664           0.00125       -0.08750        0.08750        0.00000
 BRILLOUIN|   665           0.00125       -0.08750        0.11250        0.00000
 BRILLOUIN|   666           0.00125       -0.08750        0.13750        0.00000
 BRILLOUIN|   667           0.00125       -0.08750        0.16250        0.00000
 BRILLOUIN|   668           0.00125       -0.08750        0.18750        0.00000
 BRILLOUIN|   669           0.00125       -0.08750        0.21250        0.00000
 BRILLOUIN|   670           0.00125       -0.08750        0.23750        0.00000
 BRILLOUIN|   671           0.00125       -0.08750        0.26250        0.00000
 BRILLOUIN|   672           0.00125       -0.08750        0.28750        0.00000
 BRILLOUIN|   673           0.00125       -0.08750        0.31250        0.00000
 BRILLOUIN|   674           0.00125       -0.08750        0.33750        0.00000
 BRILLOUIN|   675           0.00125       -0.08750        0.36250        0.00000
 BRILLOUIN|   676           0.00125       -0.08750        0.38750        0.00000
 BRILLOUIN|   677           0.00125       -0.08750        0.41250        0.00000
 BRILLOUIN|   678           0.00125       -0.08750        0.43750        0.00000
 BRILLOUIN|   679           0.00125       -0.08750        0.46250        0.00000
 BRILLOUIN|   680           0.00125       -0.08750        0.48750        0.00000
 BRILLOUIN|   681           0.00125       -0.06250       -0.48750        0.00000
 BRILLOUIN|   682           0.00125       -0.06250       -0.46250        0.00000
 BRILLOUIN|   683           0.00125       -0.06250       -0.43750        0.00000
 BRILLOUIN|   684           0.00125       -0.06250       -0.41250        0.00000
 BRILLOUIN|   685           0.00125       -0.06250       -0.38750        0.00000
 BRILLOUIN|   686           0.00125       -0.06250       -0.36250        0.00000
 BRILLOUIN|   687           0.00125       -0.06250       -0.33750        0.00000
 BRILLOUIN|   688           0.00125       -0.06250       -0.31250        0.00000
 BRILLOUIN|   689           0.00125       -0.06250       -0.28750        0.00000
 BRILLOUIN|   690           0.00125       -0.06250       -0.26250        0.00000
 BRILLOUIN|   691           0.00125       -0.06250       -0.23750        0.00000
 BRILLOUIN|   692           0.00125       -0.06250       -0.21250        0.00000
 BRILLOUIN|   693           0.00125       -0.06250       -0.18750        0.00000
 BRILLOUIN|   694           0.00125       -0.06250       -0.16250        0.00000
 BRILLOUIN|   695           0.00125       -0.06250       -0.13750        0.00000
 BRILLOUIN|   696           0.00125       -0.06250       -0.11250        0.00000
 BRILLOUIN|   697           0.00125       -0.06250       -0.08750        0.00000
 BRILLOUIN|   698           0.00125       -0.06250       -0.06250        0.00000
 BRILLOUIN|   699           0.00125       -0.06250       -0.03750        0.00000
 BRILLOUIN|   700           0.00125       -0.06250       -0.01250        0.00000
 BRILLOUIN|   701           0.00125       -0.06250        0.01250        0.00000
 BRILLOUIN|   702           0.00125       -0.06250        0.03750        0.00000
 BRILLOUIN|   703           0.00125       -0.06250        0.06250        0.00000
 BRILLOUIN|   704           0.00125       -0.06250        0.08750        0.00000
 BRILLOUIN|   705           0.00125       -0.06250        0.11250        0.00000
 BRILLOUIN|   706           0.00125       -0.06250        0.13750        0.00000
 BRILLOUIN|   707           0.00125       -0.06250        0.16250        0.00000
 BRILLOUIN|   708           0.00125       -0.06250        0.18750        0.00000
 BRILLOUIN|   709           0.00125       -0.06250        0.21250        0.00000
 BRILLOUIN|   710           0.00125       -0.06250        0.23750        0.00000
 BRILLOUIN|   711           0.00125       -0.06250        0.26250        0.00000
 BRILLOUIN|   712           0.00125       -0.06250        0.28750        0.00000
 BRILLOUIN|   713           0.00125       -0.06250        0.31250        0.00000
 BRILLOUIN|   714           0.00125       -0.06250        0.33750        0.00000
 BRILLOUIN|   715           0.00125       -0.06250        0.36250        0.00000
 BRILLOUIN|   716           0.00125       -0.06250        0.38750        0.00000
 BRILLOUIN|   717           0.00125       -0.06250        0.41250        0.00000
 BRILLOUIN|   718           0.00125       -0.06250        0.43750        0.00000
 BRILLOUIN|   719           0.00125       -0.06250        0.46250        0.00000
 BRILLOUIN|   720           0.00125       -0.06250        0.48750        0.00000
 BRILLOUIN|   721           0.00125       -0.03750       -0.48750        0.00000
 BRILLOUIN|   722           0.00125       -0.03750       -0.46250        0.00000
 BRILLOUIN|   723           0.00125       -0.03750       -0.43750        0.00000
 BRILLOUIN|   724           0.00125       -0.03750       -0.41250        0.00000
 BRILLOUIN|   725           0.00125       -0.03750       -0.38750        0.00000
 BRILLOUIN|   726           0.00125       -0.03750       -0.36250        0.00000
 BRILLOUIN|   727           0.00125       -0.03750       -0.33750        0.00000
 BRILLOUIN|   728           0.00125       -0.03750       -0.31250        0.00000
 BRILLOUIN|   729           0.00125       -0.03750       -0.28750        0.00000
 BRILLOUIN|   730           0.00125       -0.03750       -0.26250        0.00000
 BRILLOUIN|   731           0.00125       -0.03750       -0.23750        0.00000
 BRILLOUIN|   732           0.00125       -0.03750       -0.21250        0.00000
 BRILLOUIN|   733           0.00125       -0.03750       -0.18750        0.00000
 BRILLOUIN|   734           0.00125       -0.03750       -0.16250        0.00000
 BRILLOUIN|   735           0.00125       -0.03750       -0.13750        0.00000
 BRILLOUIN|   736           0.00125       -0.03750       -0.11250        0.00000
 BRILLOUIN|   737           0.00125       -0.03750       -0.08750        0.00000
 BRILLOUIN|   738           0.00125       -0.03750       -0.06250        0.00000
 BRILLOUIN|   739           0.00125       -0.03750       -0.03750        0.00000
 BRILLOUIN|   740           0.00125       -0.03750       -0.01250        0.00000
 BRILLOUIN|   741           0.00125       -0.03750        0.01250        0.00000
 BRILLOUIN|   742           0.00125       -0.03750        0.03750        0.00000
 BRILLOUIN|   743           0.00125       -0.03750        0.06250        0.00000
 BRILLOUIN|   744           0.00125       -0.03750        0.08750        0.00000
 BRILLOUIN|   745           0.00125       -0.03750        0.11250        0.00000
 BRILLOUIN|   746           0.00125       -0.03750        0.13750        0.00000
 BRILLOUIN|   747           0.00125       -0.03750        0.16250        0.00000
 BRILLOUIN|   748           0.00125       -0.03750        0.18750        0.00000
 BRILLOUIN|   749           0.00125       -0.03750        0.21250        0.00000
 BRILLOUIN|   750           0.00125       -0.03750        0.23750        0.00000
 BRILLOUIN|   751           0.00125       -0.03750        0.26250        0.00000
 BRILLOUIN|   752           0.00125       -0.03750        0.28750        0.00000
 BRILLOUIN|   753           0.00125       -0.03750        0.31250        0.00000
 BRILLOUIN|   754           0.00125       -0.03750        0.33750        0.00000
 BRILLOUIN|   755           0.00125       -0.03750        0.36250        0.00000
 BRILLOUIN|   756           0.00125       -0.03750        0.38750        0.00000
 BRILLOUIN|   757           0.00125       -0.03750        0.41250        0.00000
 BRILLOUIN|   758           0.00125       -0.03750        0.43750        0.00000
 BRILLOUIN|   759           0.00125       -0.03750        0.46250        0.00000
 BRILLOUIN|   760           0.00125       -0.03750        0.48750        0.00000
 BRILLOUIN|   761           0.00125       -0.01250       -0.48750        0.00000
 BRILLOUIN|   762           0.00125       -0.01250       -0.46250        0.00000
 BRILLOUIN|   763           0.00125       -0.01250       -0.43750        0.00000
 BRILLOUIN|   764           0.00125       -0.01250       -0.41250        0.00000
 BRILLOUIN|   765           0.00125       -0.01250       -0.38750        0.00000
 BRILLOUIN|   766           0.00125       -0.01250       -0.36250        0.00000
 BRILLOUIN|   767           0.00125       -0.01250       -0.33750        0.00000
 BRILLOUIN|   768           0.00125       -0.01250       -0.31250        0.00000
 BRILLOUIN|   769           0.00125       -0.01250       -0.28750        0.00000
 BRILLOUIN|   770           0.00125       -0.01250       -0.26250        0.00000
 BRILLOUIN|   771           0.00125       -0.01250       -0.23750        0.00000
 BRILLOUIN|   772           0.00125       -0.01250       -0.21250        0.00000
 BRILLOUIN|   773           0.00125       -0.01250       -0.18750        0.00000
 BRILLOUIN|   774           0.00125       -0.01250       -0.16250        0.00000
 BRILLOUIN|   775           0.00125       -0.01250       -0.13750        0.00000
 BRILLOUIN|   776           0.00125       -0.01250       -0.11250        0.00000
 BRILLOUIN|   777           0.00125       -0.01250       -0.08750        0.00000
 BRILLOUIN|   778           0.00125       -0.01250       -0.06250        0.00000
 BRILLOUIN|   779           0.00125       -0.01250       -0.03750        0.00000
 BRILLOUIN|   780           0.00125       -0.01250       -0.01250        0.00000
 BRILLOUIN|   781           0.00125       -0.01250        0.01250        0.00000
 BRILLOUIN|   782           0.00125       -0.01250        0.03750        0.00000
 BRILLOUIN|   783           0.00125       -0.01250        0.06250        0.00000
 BRILLOUIN|   784           0.00125       -0.01250        0.08750        0.00000
 BRILLOUIN|   785           0.00125       -0.01250        0.11250        0.00000
 BRILLOUIN|   786           0.00125       -0.01250        0.13750        0.00000
 BRILLOUIN|   787           0.00125       -0.01250        0.16250        0.00000
 BRILLOUIN|   788           0.00125       -0.01250        0.18750        0.00000
 BRILLOUIN|   789           0.00125       -0.01250        0.21250        0.00000
 BRILLOUIN|   790           0.00125       -0.01250        0.23750        0.00000
 BRILLOUIN|   791           0.00125       -0.01250        0.26250        0.00000
 BRILLOUIN|   792           0.00125       -0.01250        0.28750        0.00000
 BRILLOUIN|   793           0.00125       -0.01250        0.31250        0.00000
 BRILLOUIN|   794           0.00125       -0.01250        0.33750        0.00000
 BRILLOUIN|   795           0.00125       -0.01250        0.36250        0.00000
 BRILLOUIN|   796           0.00125       -0.01250        0.38750        0.00000
 BRILLOUIN|   797           0.00125       -0.01250        0.41250        0.00000
 BRILLOUIN|   798           0.00125       -0.01250        0.43750        0.00000
 BRILLOUIN|   799           0.00125       -0.01250        0.46250        0.00000
 BRILLOUIN|   800           0.00125       -0.01250        0.48750        0.00000
 *******************************************************************************

 *******************************************************************************
 *******************************************************************************
 **                                                                           **
 **     #####                         ##              ##                      **
 **    ##   ##            ##          ##              ##                      **
 **   ##     ##                       ##            ######                    **
 **   ##     ##  ##   ##  ##   #####  ##  ##   ####   ##    #####    #####    **
 **   ##     ##  ##   ##  ##  ##      ## ##   ##      ##   ##   ##  ##   ##   **
 **   ##  ## ##  ##   ##  ##  ##      ####     ###    ##   ######   ######    **
 **    ##  ###   ##   ##  ##  ##      ## ##      ##   ##   ##       ##        **
 **     #######   #####   ##   #####  ##  ##  ####    ##    #####   ##        **
 **           ##                                                    ##        **
 **                                                                           **
 **                                                ... make the atoms dance   **
 **                                                                           **
 **            Copyright (C) by CP2K developers group (2000-2025)             **
 **                      J. Chem. Phys. 152, 194103 (2020)                    **
 **                                                                           **
 *******************************************************************************

 DFT| Spin restricted Kohn-Sham (RKS) calculation                            RKS
 DFT| Multiplicity                                                             1
 DFT| Number of spin states                                                    1
 DFT| Charge                                                                   0
 DFT| Self-interaction correction (SIC)                                       NO
 DFT| Cutoffs: density                                              1.000000E-10
 DFT|          gradient                                             1.000000E-10
 DFT|          tau                                                  1.000000E-10
 DFT|          cutoff_smoothing_range                               0.000000E+00
 DFT| XC density smoothing                                                  NONE
 DFT| XC derivatives                                                          PW

 FUNCTIONAL| PBE:
 FUNCTIONAL| J.P.Perdew, K.Burke, M.Ernzerhof, Phys. Rev. Letter, vol. 77, n 18,
 FUNCTIONAL|  pp. 3865-3868, (1996) {spin unpolarized}                          


 QS| Method:                                                                GAPW
 QS| Density plane wave grid type                        NON-SPHERICAL FULLSPACE
 QS| Number of grid levels:                                                    4
 QS| Density cutoff [a.u.]:                                                250.0
 QS| Multi grid cutoff [a.u.]: 1) grid level                               250.0
 QS|                           2) grid level                                83.3
 QS|                           3) grid level                                27.8
 QS|                           4) grid level                                 9.3
 QS| Grid level progression factor:                                          3.0
 QS| Relative density cutoff [a.u.]:                                        50.0
[...]
 MP_Allreduce           19                     21.
 MP_Alltoall       4245748                 196625.
 -------------------------------------------------------------------------------

 -------------------------------------------------------------------------------
 -                                                                             -
 -                                DBM STATISTICS                               -
 -                                                                             -
 -------------------------------------------------------------------------------
    M  x    N  x    K                                          COUNT     PERCENT
 -------------------------------------------------------------------------------

 -------------------------------------------------------------------------------
 -                                                                             -
 -                                GRID STATISTICS                              -
 -                                                                             -
 -------------------------------------------------------------------------------
 LP    KERNEL             BACKEND                              COUNT     PERCENT
 8     collocate general  CPU                                 592066      50.41%
 8     integrate general  CPU                                 582360      49.59%
 0     collocate general  CPU                                      6       0.00%
 0     integrate general  CPU                                      3       0.00%
 -------------------------------------------------------------------------------

 MEMORY| Estimated peak process memory [MiB]                                 671

 -------------------------------------------------------------------------------
 ----                             MULTIGRID INFO                            ----
 -------------------------------------------------------------------------------
 count for grid        1:       14585101          cutoff [a.u.]          250.00
 count for grid        2:       11576691          cutoff [a.u.]           83.33
 count for grid        3:        7731637          cutoff [a.u.]           27.78
 count for grid        4:        2935371          cutoff [a.u.]            9.26
 total gridlevel count  :       36828800

 -------------------------------------------------------------------------------
 -                                                                             -
 -                         MESSAGE PASSING PERFORMANCE                         -
 -                                                                             -
 -------------------------------------------------------------------------------

 ROUTINE             CALLS      AVE VOLUME [Bytes]
 MP_Group                5
 MP_Bcast          1729173                   6269.
 MP_Allreduce        74749                   1046.
 MP_Sync               730
 MP_Alltoall          1930             1467241902.
 MP_SendRecv         78030                   7195.
 MP_ISendRecv        76755                   7196.
 MP_Wait           1238481
 MP_comm_split           3
 MP_ISend          2249717                    350.
 MP_IRecv          2708828                    258.
 -------------------------------------------------------------------------------


 -------------------------------------------------------------------------------
 -                                                                             -
 -                           R E F E R E N C E S                               -
 -                                                                             -
 -------------------------------------------------------------------------------
 
 CP2K version 2025.1 (Development Version), the CP2K developers group (2025).
 CP2K is freely available from https://www.cp2k.org/ .
 
 T. D. Kuehne, M. Iannuzzi, M. Del Ben, V. V. Rybkin, P. Seewald, F. Stein, T. 
 Laino, R. Z. Khaliullin, O. Schuett, F. Schiffmann, D. Golze, J. Wilhelm, S. 
 Chulkov, M. H. Bani-Hashemian, V. Weber, U. Borstnik, M. Taillefumier, A. S. 
 Jakobovits, A. Lazzaro, H. Pabst, T. Mueller, R. Schade, M. Guidon, S. 
 Andermatt, N. Holmberg, G. K. Schenter, A. Hehn, A. Bussy, F. Belleflamme, G. 
 Tabacchi, A. Gloess, M. Lass, I. Bethune, C. J. Mundy, C. Plessl, M. Watkins, 
 J. VandeVondele, M. Krack, J. Hutter.
 J. Chem. Phys. 152, 194103 (2020).
 CP2K: An electronic structure and molecular dynamics software package - 
 Quickstep: Efficient and accurate electronic structure calculations.
 https://doi.org/10.1063/5.0007045

 A. Togo, I. Tanaka.
 arXiv, 1808.01590 (2018).
 Spglib : a software library for crystal symmetry search.

 O. Schuett, P. Messmer, J. Hutter, J. VandeVondele.
 Electronic Structure Calculations on Graphics Processing Units, 173-190 (2016).
 GPU-Accelerated Sparse Matrix-Matrix Multiplication for Linear Scaling Density 
 Functional Theory.
 https://doi.org/10.1002/9781118670712.ch8

 A. Heinecke, G. Henry, M. Hutchinson, H. Pabst.
 Proceedings of Intl. Supercomputing Conference, 981-991 (2016).
 LIBXSMM: Accelerating Small Matrix Multiplications by Runtime Code Generation.
 https://doi.org/10.1109/SC.2016.83

 J. Hutter, M. Iannuzzi, F. Schiffmann, J. VandeVondele.
 WIREs Comput Mol Sci. 4, 15-25 (2014).
 CP2K: atomistic simulations of condensed matter systems.
 https://doi.org/10.1002/wcms.1159

 U. Borstnik, J. VandeVondele, V. Weber, J. Hutter.
 Parallel Comput. 40, 47-58 (2014).
 Sparse matrix multiplication: The distributed block-compressed sparse row 
 library.
 https://doi.org/10.1016/j.parco.2014.03.012

 A. Marek, V. Blum, R. Johanni, V. Havu, B. Lang, T. Auckenthaler, A. Heinecke, 
 H. Bungartz, H. Lederer.
 J. Phys. Condens. Matter 26, 213201 (2014).
 The ELPA library: scalable parallel eigenvalue solutions for electronic 
 structure theory and computational science.
 https://doi.org/10.1088/0953-8984/26/21/213201

 J. VandeVondele, J. Hutter.
 J. Chem. Phys. 127, 114105 (2007).
 Gaussian basis sets for accurate calculations on molecular systems in gas and 
 condensed phases.
 https://doi.org/10.1063/1.2770708

 M. Krack.
 Theor. Chem. Acc. 114, 145-152 (2005).
 Pseudopotentials for H to Kr optimized for gradient-corrected 
 exchange-correlation functionals.
 https://doi.org/10.1007/s00214-005-0655-y

 M. Frigo, S. G. Johnson.
 Proc. IEEE 93, 216-231 (2005).
 The design and implementation of FFTW3.
 https://doi.org/10.1109/JPROC.2004.840301

 M. Krack, M. Parrinello.
 Phys. Chem. Chem. Phys. 2, 2105-2112 (2000).
 All-electron ab-initio molecular dynamics.
 https://doi.org/10.1039/b001167n

 G. Lippert, J. Hutter, M. Parrinello.
 Theor. Chem. Acc. 103, 124-140 (1999).
 The Gaussian and augmented-plane-wave density functional method for ab initio 
 molecular dynamics simulations.
 https://doi.org/10.1007/s002140050523

 C. Hartwigsen, S. Goedecker, J. Hutter.
 Phys. Rev. B 58, 3641-3662 (1998).
 Relativistic separable dual-space Gaussian pseudopotentials from H to Rn.
 https://doi.org/10.1103/PhysRevB.58.3641

 S. Goedecker, M. Teter, J. Hutter.
 Phys. Rev. B 54, 1703-1710 (1996).
 Separable dual-space Gaussian pseudopotentials.
 https://doi.org/10.1103/PhysRevB.54.1703

 J. P. Perdew, K. Burke, M. Ernzerhof.
 Phys. Rev. Lett. 77, 3865-3868 (1996).
 Generalized gradient approximation made simple.
 https://doi.org/10.1103/PhysRevLett.77.3865


 -------------------------------------------------------------------------------
 -                                                                             -
 -                                T I M I N G                                  -
 -                                                                             -
 -------------------------------------------------------------------------------
 SUBROUTINE                       CALLS  ASD         SELF TIME        TOTAL TIME
                                MAXIMUM       AVERAGE  MAXIMUM  AVERAGE  MAXIMUM
 CP2K                                 1  1.0    0.024    0.061 1818.740 1818.754
 qs_energies                          1  2.0    0.001    0.005 1817.068 1817.136
 scf_env_do_scf                       1  3.0    0.000    0.002 1531.765 1531.781
 scf_env_do_scf_inner_loop           60  4.0    0.010    0.015 1531.765 1531.779
 qs_scf_new_mos_kp                   60  5.0    0.000    0.000 1491.864 1492.019
 do_general_diag_kp                  60  6.0    0.454    0.509 1491.864 1492.019
 dbcsr_desymmetrize_deep         420009  7.6    4.122    5.680  922.722  927.153
 mp_alltoall_i22                 726538  8.9  622.054  629.492  622.054  629.492
 copy_dbcsr_to_fm                210529  7.1    1.148    1.217  625.938  626.955
 dbcsr_complete_redistribute     306529  8.4    6.084   10.345  589.154  591.634
 mp_alltoall_d11v               2179614  9.5  411.026  412.966  411.026  412.966
 mp_alltoall_i11v               1339596  9.1  398.865  399.080  398.865  399.080
 kpoint_density_transform            60  7.0    0.146    0.170  299.456  299.680
 rskp_transform                  104740  7.1    3.125  290.258    3.125  290.258
 copy_fm_to_dbcsr                 96000  8.0    0.270    0.298  283.787  285.288
 qs_energies_properties               1  3.0    0.000    0.000  284.446  284.511
 post_scf_bandstructure               1  4.0    0.000    0.001  284.446  284.511
 hybrid_alltoall_any             420009  8.6    1.156    1.264  239.739  240.526
 cp_cfm_heevd                      6744  7.7    0.005    0.006  135.883  136.521
 cp_cfm_heevd_base                 6744  8.7  135.878  136.516  135.878  136.516
 transform_dmat                   48000  8.0    1.432  131.586    1.432  131.586
 rsmat_to_kp                       8740  7.0    0.064    0.068  107.987  108.906
 create_and_init_bs_env               1  5.0    0.000    0.000  108.841  108.842
 compute_cfm_mo_coeff_kp_and_ei       1  6.0    0.005    0.007  108.830  108.831
 dos_pdos_ldos                        1  5.0    0.005    0.010  108.184  108.252
 SOC_ev                            1748  6.0    0.013    0.020   91.695   91.894
 soc                                  1  5.0    0.000    0.000   67.421   67.422
 H_KS_spinor_kp                       1  6.0    0.012    0.013   67.369   67.394
 cp_cfm_geeig_canon                1748  7.0    0.029    0.032   63.146   63.217
 cp_fm_start_copy_general        288000  7.3    1.692    3.223   56.696   56.920
 mp_allgather_i                  576000  8.3   46.830   47.667   46.830   47.667
 parallel_gemm_cfm                12236  7.0    0.006    0.009   41.333   41.854
 parallel_gemm_cfm_cosma          12236  8.0   41.327   41.847   41.327   41.847
 mp_cart_sub                     421065  9.1   34.071   34.159   34.071   34.159
 qs_ks_update_qs_env                 60  5.0    0.000    0.000   19.030   19.072
 mp_cart_create                  210535  9.1   17.663   18.402   17.663   18.402
 rebuild_ks_matrix                   60  6.0    0.000    0.000   18.159   18.202
 qs_ks_build_kohn_sham_matrix        60  7.0    0.020    0.030   18.159   18.201
 mp_waitall_1                   1238481  8.8   17.485   17.719   17.485   17.719
 transfer_pw2rs                     301 10.6    0.001    0.001   17.331   17.539
 sum_up_and_integrate                60  8.0    0.000    0.001    0.692   17.434
 integrate_v_rspace                  60  9.0    0.002    0.093    0.692   17.433
 transfer_pw2rs_250                 121 11.0    0.101    0.117   17.168   17.381
 integrate_vhg0_rspace               60  8.0    0.001    0.001   16.970   17.176
 grid_integrate_task_list            60 10.0    0.176   16.886    0.176   16.886
 transfer_rs2pw                     306  8.4    0.002    0.003   15.543   15.737
 transfer_rs2pw_250                 123 10.0    0.110    0.129   15.415   15.620
 mp_sendrecv_dv                   78030 10.4   15.399   15.599   15.399   15.599
 cp_cfm_geeig                      1500  7.0    0.006    0.007   15.130   15.546
 qs_rho_update_rho_low               61  5.0    0.001    0.001   15.454   15.458
 calculate_rho_elec                  61  6.0    0.002    0.087   15.451   15.456
 compute_proj_mo_on_kind           1748  6.0    0.046    0.064   14.993   15.242
 density_rs2pw                       61  7.0    0.001    0.001   15.050   15.232
 grid_collocate_task_list            61  7.0    0.396   14.834    0.396   14.834
 dbcsr_finalize                  773735  8.9    1.521    1.603    9.821   10.947
 dbcsr_merge_all                 307576 10.4    4.175    5.189    5.568    6.633
 mp_bcast_iv                    1152160  8.3    5.352    5.694    5.352    5.694
 add_cfm_submat                   13984  7.0    0.053    0.058    4.753    5.578
 cp_fm_to_fm_submat               27968  8.0    4.649    5.463    4.649    5.463
 add_to_DOS_PDOS                   3496  6.5    3.925    4.053    3.925    4.053
 write_kpoints_restart               60  5.0    0.002    0.113    4.030    4.039
 dbcsr_create_new               1108569  8.5    2.780    3.464    3.355    4.038
 kpoint_density_matrices             60  7.0    0.014    0.016    3.492    3.587
 parallel_gemm_fm                  6000  8.0    0.003    0.004    3.471    3.567
 parallel_gemm_fm_cosma            6000  9.0    3.468    3.564    3.468    3.564
 dbcsr_work_create               727585  8.9    1.362    1.559    2.186    2.749
 mp_bcast_im                     576000  8.3    2.349    2.650    2.349    2.650
 dbcsr_data_new                 6512668  9.7    1.536    2.125    1.536    2.125
 dbcsr_iterator_start           2017569  9.2    1.571    1.644    1.891    2.123
 dbcsr_destroy                  1065642  8.4    0.863    0.917    1.788    1.944
 dbcsr_data_release             9370255 10.1    1.464    1.766    1.464    1.766
 kpoint_set_mo_occupation            60  7.0    0.287    0.294    1.350    1.700
 dbcsr_work_destroy_all          727585  9.9    1.132    1.172    1.605    1.679
 mp_comm_free                    633396  9.1    1.527    1.665    1.527    1.665
 write_SOC_eigenvalues              148  6.0    0.006    1.588    0.006    1.588
 cp_cfm_gemm                       5244  8.0    1.451    1.576    1.451    1.576
 copy_fm_to_dbcsr_bc              96000  9.0    0.390    0.420    1.423    1.575
 create_qs_kind_set                   1  2.0    0.000    0.000    1.460    1.463
 read_qs_kind                         2  3.0    0.328    0.428    1.460    1.463
 mp_sum_dv                         7171  7.0    1.104    1.417    1.104    1.417
 mp_sum_dm3                          60  8.0    1.063    1.412    1.063    1.412
 quick_finalize                  420009  9.6    0.650    0.860    0.979    1.383
 dbcsr_iterator_stop            2017569  9.2    0.928    1.006    1.147    1.247
 copy_dbcsr_to_fm_bc             210529  8.1    0.526    0.656    1.117    1.236
 cp_cfm_triangular_multiply        4500  8.0    1.030    1.140    1.030    1.140
 parser_read_line                150090  4.0    0.022    0.025    1.132    1.139
 parser_read_line_low               159  5.0    0.009    0.848    1.110    1.117
 broadcast_input_information        159  6.0    0.025    0.026    1.100    1.111
 tree_to_linear_d                306529 11.4    0.934    1.106    0.934    1.106
 dbcsr_copy                      139276  8.2    0.129    0.234    0.700    1.047
 cp_fm_write_unformatted           1047  6.0    0.723    0.965    0.723    1.007
 mp_bcast_i_src                     636  7.0    0.947    0.980    0.947    0.980
 external_control                    60  5.0    0.004    0.915    0.918    0.923
 mp_bcast_b_src                      60  6.0    0.914    0.923    0.914    0.923
 cp_fm_finish_copy_general       102000  7.9    0.531    0.741    0.652    0.918
 mp_sum_iv                         3517  9.0    0.858    0.884    0.858    0.884
 alloc_cfm_double_array_1d            1  7.0    0.001    0.001    0.855    0.879
 create_cfm_double                 1748  8.0    0.005    0.006    0.854    0.879
 build_core_ppnl                      2  6.0    0.029    0.878    0.029    0.878
 dbcsr_dot                        41881  8.0    0.077    0.274    0.875    0.877
 evaluate_core_matrix_traces         60  6.0    0.000    0.000    0.870    0.870
 calculate_ptrace_kp                120  7.0    0.013    0.015    0.870    0.870
 mp_sum_d                         42981  8.9    0.842    0.858    0.842    0.858
 V_SOC_xyz_from_pseudopotential       1  6.0    0.004    0.005    0.052    0.820
 dbcsr_set                       561620  8.3    0.264    0.285    0.354    0.780
 dbcsr_copy_into_existing         96349 10.0    0.261    0.489    0.535    0.778
 cp_cfm_triangular_invert          1500  8.0    0.571    0.692    0.571    0.692
 self_consistency_check              60  5.0    0.013    0.014    0.600    0.604
 cp_sm_mix                        20940  6.0    0.022    0.106    0.573    0.579
 dbcsr_iterator_seek            2017569 10.2    0.321    0.542    0.321    0.542
 dbcsr_sort_indices              845264 11.3    0.205    0.534    0.205    0.534
 mp_max_d                         20942  7.0    0.525    0.533    0.525    0.533
 qs_energies_init_hamiltonians        1  3.0    0.000    0.004    0.519    0.520
 potential_pw2rs                     60 10.0    0.001    0.001    0.514    0.518
 cp_cfm_cholesky_decompose         1500  8.0    0.467    0.514    0.467    0.514
 dbcsr_zero                      561620  9.3    0.091    0.500    0.091    0.500
 qs_env_update_s_mstruct              1  4.0    0.000    0.001    0.474    0.484
 calculate_rho_core                   1  5.0    0.000    0.010    0.471    0.482
 mp_isend_dv                    1350000  8.3    0.206    0.480    0.206    0.480
 build_core_hamiltonian_matrix        1  4.0    0.001    0.010    0.019    0.471
 fft_wrap_pw1pw2                   1145 10.0    0.003    0.003    0.449    0.467
 dbcsr_make_index_exist         1108569  9.5    0.372    0.400    0.372    0.400
 dbcsr_reserve_blocks            118726 10.5    0.160    0.316    0.214    0.384
 dbcsr_reserve_all_blocks         96000 10.0    0.072    0.080    0.273    0.346
 cp_dbcsr_alloc_block_from_nbl    22726  7.6    0.036    0.194    0.056    0.322
 fft_wrap_pw1pw2_250                782 11.3    0.003    0.005    0.291    0.309
 cp_fm_cleanup_copy_general      195000  7.0    0.128    0.160    0.211    0.307
 mp_irecv_iv                    1152000  8.3    0.001    0.305    0.001    0.305
 init_scf_run                         1  3.0    0.000    0.001    0.300    0.300
 scf_env_initial_rho_setup            1  4.0    0.000    0.002    0.300    0.300
 fft3d_pb                           782 12.3    0.022    0.029    0.282    0.299
 mp_alltoall_z22v                  1927 14.1    0.254    0.270    0.254    0.270
 dbcsr_switch_data_area          420009 10.6    0.190    0.203    0.252    0.270
 prepare_gapw_den                    60  8.0    0.000    0.001    0.264    0.269
 put_rho0_on_grid                    60  9.0    0.001    0.001    0.261    0.266
 merge_index                     307576 11.4    0.165    0.243    0.165    0.243
 mp_irecv_dv                     972000  8.3    0.120    0.218    0.120    0.218
 dbcsr_distribution_new          306531  8.7    0.179    0.200    0.179    0.200
 dbcsr_make_dbcsr_index          846311 11.0    0.162    0.188    0.162    0.188
 -------------------------------------------------------------------------------

 The number of warnings for this run is : 1
 
 -------------------------------------------------------------------------------
  **** **** ******  **  PROGRAM ENDED AT                 2025-07-18 18:17:07.625
 ***** ** ***  *** **   PROGRAM RAN ON                                  n2cn0418
 **    ****   ******    PROGRAM RAN BY                                  metdyn02
 ***** **    ** ** **   PROGRAM PROCESS ID                               1861234
  **** **  *******  **  PROGRAM STOPPED IN /scratch/hpc-prf-metdyn/metdyn02_Remi
                                           /05_TMD_new/4_WSe2_/TZVP/1e-3/smallso
                                           cwindow
