 DBCSR| CPU Multiplication driver                                           XSMM (U)
 DBCSR| Multrec recursion limit                                              512 (U)
 DBCSR| Multiplication stack size                                           1000 (D)
 DBCSR| Maximum elements for images                                    UNLIMITED (U)
 DBCSR| Multiplicative factor virtual images                                   1 (U)
 DBCSR| Use multiplication densification                                       T (D)
 DBCSR| Multiplication size stacks                                             3 (U)
 DBCSR| Use memory pool for CPU allocation                                     F (U)
 DBCSR| Number of 3D layers                                               SINGLE (U)
 DBCSR| Use MPI memory allocation                                              F (U)
 DBCSR| Use RMA algorithm                                                      F (U)
 DBCSR| Use Communication thread                                               T (U)
 DBCSR| Communication thread load                                             60 (D)
 DBCSR| MPI: My process id                                                     0
 DBCSR| MPI: Number of processes                                             128
 DBCSR| OMP: Current number of threads                                         8
 DBCSR| OMP: Max number of threads                                             8
 DBCSR| Split modifier for TAS multiplication algorithm                  1.0E+00 (U)


  **** **** ******  **  PROGRAM STARTED AT               2025-09-18 06:04:24.740
 ***** ** ***  *** **   PROGRAM STARTED ON                             n2lcn0135
 **    ****   ******    PROGRAM STARTED BY                              metdyn02
 ***** **    ** ** **   PROGRAM PROCESS ID                                833000
  **** **  *******  **  PROGRAM STARTED IN /scratch/hpc-prf-metdyn/metdyn02_Remi
                                           /05_TMD_new/paperbenchmarksMoS2/timep
                                           oints/34

 CP2K| version string:                 CP2K version 2025.2 (Development Version)
 CP2K| source code revision number:                                  git:8d80afc
 CP2K| cp2kflags: omp libint fftw3 libxc libgrpp elpa parallel scalapack mpi_f08
 CP2K|             cosma xsmm plumed2 spglib libvori libbqb libvdwxc hdf5
 CP2K| is freely available from                            https://www.cp2k.org/
 CP2K| Program compiled at                         Mon Sep  8 11:02:08 CEST 2025
 CP2K| Program compiled on                                              n2login1
 CP2K| Program compiled for                                                local
 CP2K| Data directory path    /opt/software/pc2/EB-SW/software/CP2K/2025.2-foss-
 CP2K| Input file name                                                    GW.inp

 GLOBAL| Force Environment number                                              1
 GLOBAL| Basis set file name            /scratch/hpc-prf-metdyn/metdyn02_Remi/05
 GLOBAL| Potential file name                                  GTH_SOC_POTENTIALS
 GLOBAL| MM Potential file name                                     MM_POTENTIAL
 GLOBAL| Coordinate file name                                      __STD_INPUT__
 GLOBAL| Method name                                                        CP2K
 GLOBAL| Project name                                                       WSe2
 GLOBAL| Run type                                                         ENERGY
 GLOBAL| FFT library                                                       FFTW3
 GLOBAL| Diagonalization library                                            ELPA
 GLOBAL| Cholesky decomposition library                                ScaLAPACK
 GLOBAL| DGEMM library                                                      BLAS
 GLOBAL| Minimum number of eigenvectors for ELPA usage                        16
 GLOBAL| Orthonormality check for eigenvectors                          DISABLED
 GLOBAL| Matrix multiplication library                                     COSMA
 GLOBAL| All-to-all communication in single precision                          F
 GLOBAL| FFTs using library dependent lengths                                  F
 GLOBAL| Grid backend                                                       AUTO
 GLOBAL| Global print level                                               MEDIUM
 GLOBAL| MPI I/O enabled                                                       T
 GLOBAL| Total number of message passing processes                           128
 GLOBAL| Number of threads for this process                                    8
 GLOBAL| This output is from process                                           0
 GLOBAL| OpenMP stack size per thread (OMP_STACKSIZE)                    default
 GLOBAL| CPU model name                          AMD EPYC 7763 64-Core Processor
 GLOBAL| CPUID                                                              1002

 MEMORY| system memory details [Kb]
 MEMORY|                        rank 0           min           max       average
 MEMORY| MemTotal           1056620484    1056620440    1056620544    1056620488
 MEMORY| MemFree            1033874224    1027617132    1033874224    1030945869
 MEMORY| Buffers                132020         23236        132020         61637
 MEMORY| Cached               12260940      12260940      18380296      14890894
 MEMORY| Slab                  2363868       2193052       5464020       3389966
 MEMORY| SReclaimable           676088        496676       2182288       1182711
 MEMORY| MemLikelyFree      1046943272    1046377416    1047495580    1047081112


 *** Fundamental physical constants (SI units) ***

 *** Literature: B. J. Mohr and B. N. Taylor,
 ***             CODATA recommended values of the fundamental physical
 ***             constants: 2006, Web Version 5.1
 ***             http://physics.nist.gov/constants

 Speed of light in vacuum [m/s]                             2.99792458000000E+08
 Magnetic constant or permeability of vacuum [N/A**2]       1.25663706143592E-06
 Electric constant or permittivity of vacuum [F/m]          8.85418781762039E-12
 Planck constant (h) [J*s]                                  6.62606896000000E-34
 Planck constant (h-bar) [J*s]                              1.05457162825177E-34
 Elementary charge [C]                                      1.60217648700000E-19
 Electron mass [kg]                                         9.10938215000000E-31
 Electron g factor [ ]                                     -2.00231930436220E+00
 Proton mass [kg]                                           1.67262163700000E-27
 Fine-structure constant                                    7.29735253760000E-03
 Rydberg constant [1/m]                                     1.09737315685270E+07
 Avogadro constant [1/mol]                                  6.02214179000000E+23
 Boltzmann constant [J/K]                                   1.38065040000000E-23
 Atomic mass unit [kg]                                      1.66053878200000E-27
 Bohr radius [m]                                            5.29177208590000E-11

 *** Conversion factors ***

 [u] -> [a.u.]                                              1.82288848426455E+03
 [Angstrom] -> [Bohr] = [a.u.]                              1.88972613288564E+00
 [a.u.] = [Bohr] -> [Angstrom]                              5.29177208590000E-01
 [a.u.] -> [s]                                              2.41888432650478E-17
 [a.u.] -> [fs]                                             2.41888432650478E-02
 [a.u.] -> [J]                                              4.35974393937059E-18
 [a.u.] -> [N]                                              8.23872205491840E-08
 [a.u.] -> [K]                                              3.15774647902944E+05
 [a.u.] -> [kJ/mol]                                         2.62549961709828E+03
 [a.u.] -> [kcal/mol]                                       6.27509468713739E+02
 [a.u.] -> [Pa]                                             2.94210107994716E+13
 [a.u.] -> [bar]                                            2.94210107994716E+08
 [a.u.] -> [atm]                                            2.90362800883016E+08
 [a.u.] -> [eV]                                             2.72113838565563E+01
 [a.u.] -> [Hz]                                             6.57968392072181E+15
 [a.u.] -> [1/cm] (wave numbers)                            2.19474631370540E+05
 [a.u./Bohr**2] -> [1/cm]                                   5.14048714338585E+03
 

 CELL_TOP| Volume [angstrom^3]:                                       131.694613
 CELL_TOP| Vector a [angstrom     3.184     0.000     0.000   |a| =     3.184000
 CELL_TOP| Vector b [angstrom    -1.592     2.757     0.000   |b| =     3.184000
 CELL_TOP| Vector c [angstrom     0.000     0.000    15.000   |c| =    15.000000
 CELL_TOP| Angle (b,c), alpha [degree]:                                90.000000
 CELL_TOP| Angle (a,c), beta  [degree]:                                90.000000
 CELL_TOP| Angle (a,b), gamma [degree]:                               120.000000
 CELL_TOP| Numerically orthorhombic:                                          NO
 CELL_TOP| Periodicity                                                        XY

 GENERATE|  Preliminary Number of Bonds generated:                             0
 GENERATE|  Achieved consistency in connectivity generation.

 CELL| Volume [angstrom^3]:                                           131.694613
 CELL| Vector a [angstrom]:       3.184     0.000     0.000   |a| =     3.184000
 CELL| Vector b [angstrom]:      -1.592     2.757     0.000   |b| =     3.184000
 CELL| Vector c [angstrom]:       0.000     0.000    15.000   |c| =    15.000000
 CELL| Angle (b,c), alpha [degree]:                                    90.000000
 CELL| Angle (a,c), beta  [degree]:                                    90.000000
 CELL| Angle (a,b), gamma [degree]:                                   120.000000
 CELL| Numerically orthorhombic:                                              NO
 CELL| Periodicity                                                            XY

 CELL_REF| Volume [angstrom^3]:                                       131.694613
 CELL_REF| Vector a [angstrom     3.184     0.000     0.000   |a| =     3.184000
 CELL_REF| Vector b [angstrom    -1.592     2.757     0.000   |b| =     3.184000
 CELL_REF| Vector c [angstrom     0.000     0.000    15.000   |c| =    15.000000
 CELL_REF| Angle (b,c), alpha [degree]:                                90.000000
 CELL_REF| Angle (a,c), beta  [degree]:                                90.000000
 CELL_REF| Angle (a,b), gamma [degree]:                               120.000000
 CELL_REF| Numerically orthorhombic:                                          NO
 CELL_REF| Periodicity                                                        XY

 *******************************************************************************
                                    Kpoints
 *******************************************************************************
 BRILLOUIN| K-point scheme                                        Monkhorst-Pack
 BRILLOUIN| K-Point grid                                            32   32    1
 BRILLOUIN| Accuracy in Symmetry determination                      0.100000E-05
 BRILLOUIN| K-Point point group symmetrization                               OFF
 BRILLOUIN| Wavefunction type                                            COMPLEX
 BRILLOUIN| List of Kpoints [2 Pi/Bohr]                                      512
 BRILLOUIN| Number           Weight            X              Y              Z
 BRILLOUIN|     1           0.00195       -0.48438       -0.48438        0.00000
 BRILLOUIN|     2           0.00195       -0.48438       -0.45312        0.00000
 BRILLOUIN|     3           0.00195       -0.48438       -0.42188        0.00000
 BRILLOUIN|     4           0.00195       -0.48438       -0.39062        0.00000
 BRILLOUIN|     5           0.00195       -0.48438       -0.35938        0.00000
 BRILLOUIN|     6           0.00195       -0.48438       -0.32812        0.00000
 BRILLOUIN|     7           0.00195       -0.48438       -0.29688        0.00000
 BRILLOUIN|     8           0.00195       -0.48438       -0.26562        0.00000
 BRILLOUIN|     9           0.00195       -0.48438       -0.23438        0.00000
 BRILLOUIN|    10           0.00195       -0.48438       -0.20312        0.00000
 BRILLOUIN|    11           0.00195       -0.48438       -0.17188        0.00000
 BRILLOUIN|    12           0.00195       -0.48438       -0.14062        0.00000
 BRILLOUIN|    13           0.00195       -0.48438       -0.10938        0.00000
 BRILLOUIN|    14           0.00195       -0.48438       -0.07812        0.00000
 BRILLOUIN|    15           0.00195       -0.48438       -0.04688        0.00000
 BRILLOUIN|    16           0.00195       -0.48438       -0.01562        0.00000
 BRILLOUIN|    17           0.00195       -0.48438        0.01562        0.00000
 BRILLOUIN|    18           0.00195       -0.48438        0.04688        0.00000
 BRILLOUIN|    19           0.00195       -0.48438        0.07812        0.00000
 BRILLOUIN|    20           0.00195       -0.48438        0.10938        0.00000
 BRILLOUIN|    21           0.00195       -0.48438        0.14062        0.00000
 BRILLOUIN|    22           0.00195       -0.48438        0.17188        0.00000
 BRILLOUIN|    23           0.00195       -0.48438        0.20312        0.00000
 BRILLOUIN|    24           0.00195       -0.48438        0.23438        0.00000
 BRILLOUIN|    25           0.00195       -0.48438        0.26562        0.00000
 BRILLOUIN|    26           0.00195       -0.48438        0.29688        0.00000
 BRILLOUIN|    27           0.00195       -0.48438        0.32812        0.00000
 BRILLOUIN|    28           0.00195       -0.48438        0.35938        0.00000
 BRILLOUIN|    29           0.00195       -0.48438        0.39062        0.00000
 BRILLOUIN|    30           0.00195       -0.48438        0.42188        0.00000
 BRILLOUIN|    31           0.00195       -0.48438        0.45312        0.00000
 BRILLOUIN|    32           0.00195       -0.48438        0.48438        0.00000
 BRILLOUIN|    33           0.00195       -0.45312       -0.48438        0.00000
 BRILLOUIN|    34           0.00195       -0.45312       -0.45312        0.00000
 BRILLOUIN|    35           0.00195       -0.45312       -0.42188        0.00000
 BRILLOUIN|    36           0.00195       -0.45312       -0.39062        0.00000
 BRILLOUIN|    37           0.00195       -0.45312       -0.35938        0.00000
 BRILLOUIN|    38           0.00195       -0.45312       -0.32812        0.00000
 BRILLOUIN|    39           0.00195       -0.45312       -0.29688        0.00000
 BRILLOUIN|    40           0.00195       -0.45312       -0.26562        0.00000
 BRILLOUIN|    41           0.00195       -0.45312       -0.23438        0.00000
 BRILLOUIN|    42           0.00195       -0.45312       -0.20312        0.00000
 BRILLOUIN|    43           0.00195       -0.45312       -0.17188        0.00000
 BRILLOUIN|    44           0.00195       -0.45312       -0.14062        0.00000
 BRILLOUIN|    45           0.00195       -0.45312       -0.10938        0.00000
 BRILLOUIN|    46           0.00195       -0.45312       -0.07812        0.00000
 BRILLOUIN|    47           0.00195       -0.45312       -0.04688        0.00000
 BRILLOUIN|    48           0.00195       -0.45312       -0.01562        0.00000
 BRILLOUIN|    49           0.00195       -0.45312        0.01562        0.00000
 BRILLOUIN|    50           0.00195       -0.45312        0.04688        0.00000
 BRILLOUIN|    51           0.00195       -0.45312        0.07812        0.00000
 BRILLOUIN|    52           0.00195       -0.45312        0.10938        0.00000
 BRILLOUIN|    53           0.00195       -0.45312        0.14062        0.00000
 BRILLOUIN|    54           0.00195       -0.45312        0.17188        0.00000
 BRILLOUIN|    55           0.00195       -0.45312        0.20312        0.00000
 BRILLOUIN|    56           0.00195       -0.45312        0.23438        0.00000
 BRILLOUIN|    57           0.00195       -0.45312        0.26562        0.00000
 BRILLOUIN|    58           0.00195       -0.45312        0.29688        0.00000
 BRILLOUIN|    59           0.00195       -0.45312        0.32812        0.00000
 BRILLOUIN|    60           0.00195       -0.45312        0.35938        0.00000
 BRILLOUIN|    61           0.00195       -0.45312        0.39062        0.00000
 BRILLOUIN|    62           0.00195       -0.45312        0.42188        0.00000
 BRILLOUIN|    63           0.00195       -0.45312        0.45312        0.00000
 BRILLOUIN|    64           0.00195       -0.45312        0.48438        0.00000
 BRILLOUIN|    65           0.00195       -0.42188       -0.48438        0.00000
 BRILLOUIN|    66           0.00195       -0.42188       -0.45312        0.00000
 BRILLOUIN|    67           0.00195       -0.42188       -0.42188        0.00000
 BRILLOUIN|    68           0.00195       -0.42188       -0.39062        0.00000
 BRILLOUIN|    69           0.00195       -0.42188       -0.35938        0.00000
 BRILLOUIN|    70           0.00195       -0.42188       -0.32812        0.00000
 BRILLOUIN|    71           0.00195       -0.42188       -0.29688        0.00000
 BRILLOUIN|    72           0.00195       -0.42188       -0.26562        0.00000
 BRILLOUIN|    73           0.00195       -0.42188       -0.23438        0.00000
 BRILLOUIN|    74           0.00195       -0.42188       -0.20312        0.00000
 BRILLOUIN|    75           0.00195       -0.42188       -0.17188        0.00000
 BRILLOUIN|    76           0.00195       -0.42188       -0.14062        0.00000
 BRILLOUIN|    77           0.00195       -0.42188       -0.10938        0.00000
 BRILLOUIN|    78           0.00195       -0.42188       -0.07812        0.00000
 BRILLOUIN|    79           0.00195       -0.42188       -0.04688        0.00000
 BRILLOUIN|    80           0.00195       -0.42188       -0.01562        0.00000
 BRILLOUIN|    81           0.00195       -0.42188        0.01562        0.00000
 BRILLOUIN|    82           0.00195       -0.42188        0.04688        0.00000
 BRILLOUIN|    83           0.00195       -0.42188        0.07812        0.00000
 BRILLOUIN|    84           0.00195       -0.42188        0.10938        0.00000
 BRILLOUIN|    85           0.00195       -0.42188        0.14062        0.00000
 BRILLOUIN|    86           0.00195       -0.42188        0.17188        0.00000
 BRILLOUIN|    87           0.00195       -0.42188        0.20312        0.00000
 BRILLOUIN|    88           0.00195       -0.42188        0.23438        0.00000
 BRILLOUIN|    89           0.00195       -0.42188        0.26562        0.00000
 BRILLOUIN|    90           0.00195       -0.42188        0.29688        0.00000
 BRILLOUIN|    91           0.00195       -0.42188        0.32812        0.00000
 BRILLOUIN|    92           0.00195       -0.42188        0.35938        0.00000
 BRILLOUIN|    93           0.00195       -0.42188        0.39062        0.00000
 BRILLOUIN|    94           0.00195       -0.42188        0.42188        0.00000
 BRILLOUIN|    95           0.00195       -0.42188        0.45312        0.00000
 BRILLOUIN|    96           0.00195       -0.42188        0.48438        0.00000
 BRILLOUIN|    97           0.00195       -0.39062       -0.48438        0.00000
 BRILLOUIN|    98           0.00195       -0.39062       -0.45312        0.00000
 BRILLOUIN|    99           0.00195       -0.39062       -0.42188        0.00000
 BRILLOUIN|   100           0.00195       -0.39062       -0.39062        0.00000
 BRILLOUIN|   101           0.00195       -0.39062       -0.35938        0.00000
 BRILLOUIN|   102           0.00195       -0.39062       -0.32812        0.00000
 BRILLOUIN|   103           0.00195       -0.39062       -0.29688        0.00000
 BRILLOUIN|   104           0.00195       -0.39062       -0.26562        0.00000
 BRILLOUIN|   105           0.00195       -0.39062       -0.23438        0.00000
 BRILLOUIN|   106           0.00195       -0.39062       -0.20312        0.00000
 BRILLOUIN|   107           0.00195       -0.39062       -0.17188        0.00000
 BRILLOUIN|   108           0.00195       -0.39062       -0.14062        0.00000
 BRILLOUIN|   109           0.00195       -0.39062       -0.10938        0.00000
 BRILLOUIN|   110           0.00195       -0.39062       -0.07812        0.00000
 BRILLOUIN|   111           0.00195       -0.39062       -0.04688        0.00000
 BRILLOUIN|   112           0.00195       -0.39062       -0.01562        0.00000
 BRILLOUIN|   113           0.00195       -0.39062        0.01562        0.00000
 BRILLOUIN|   114           0.00195       -0.39062        0.04688        0.00000
 BRILLOUIN|   115           0.00195       -0.39062        0.07812        0.00000
 BRILLOUIN|   116           0.00195       -0.39062        0.10938        0.00000
 BRILLOUIN|   117           0.00195       -0.39062        0.14062        0.00000
 BRILLOUIN|   118           0.00195       -0.39062        0.17188        0.00000
 BRILLOUIN|   119           0.00195       -0.39062        0.20312        0.00000
 BRILLOUIN|   120           0.00195       -0.39062        0.23438        0.00000
 BRILLOUIN|   121           0.00195       -0.39062        0.26562        0.00000
 BRILLOUIN|   122           0.00195       -0.39062        0.29688        0.00000
 BRILLOUIN|   123           0.00195       -0.39062        0.32812        0.00000
 BRILLOUIN|   124           0.00195       -0.39062        0.35938        0.00000
 BRILLOUIN|   125           0.00195       -0.39062        0.39062        0.00000
 BRILLOUIN|   126           0.00195       -0.39062        0.42188        0.00000
 BRILLOUIN|   127           0.00195       -0.39062        0.45312        0.00000
 BRILLOUIN|   128           0.00195       -0.39062        0.48438        0.00000
 BRILLOUIN|   129           0.00195       -0.35938       -0.48438        0.00000
 BRILLOUIN|   130           0.00195       -0.35938       -0.45312        0.00000
 BRILLOUIN|   131           0.00195       -0.35938       -0.42188        0.00000
 BRILLOUIN|   132           0.00195       -0.35938       -0.39062        0.00000
 BRILLOUIN|   133           0.00195       -0.35938       -0.35938        0.00000
 BRILLOUIN|   134           0.00195       -0.35938       -0.32812        0.00000
 BRILLOUIN|   135           0.00195       -0.35938       -0.29688        0.00000
 BRILLOUIN|   136           0.00195       -0.35938       -0.26562        0.00000
 BRILLOUIN|   137           0.00195       -0.35938       -0.23438        0.00000
 BRILLOUIN|   138           0.00195       -0.35938       -0.20312        0.00000
 BRILLOUIN|   139           0.00195       -0.35938       -0.17188        0.00000
 BRILLOUIN|   140           0.00195       -0.35938       -0.14062        0.00000
 BRILLOUIN|   141           0.00195       -0.35938       -0.10938        0.00000
 BRILLOUIN|   142           0.00195       -0.35938       -0.07812        0.00000
 BRILLOUIN|   143           0.00195       -0.35938       -0.04688        0.00000
 BRILLOUIN|   144           0.00195       -0.35938       -0.01562        0.00000
 BRILLOUIN|   145           0.00195       -0.35938        0.01562        0.00000
 BRILLOUIN|   146           0.00195       -0.35938        0.04688        0.00000
 BRILLOUIN|   147           0.00195       -0.35938        0.07812        0.00000
 BRILLOUIN|   148           0.00195       -0.35938        0.10938        0.00000
 BRILLOUIN|   149           0.00195       -0.35938        0.14062        0.00000
 BRILLOUIN|   150           0.00195       -0.35938        0.17188        0.00000
 BRILLOUIN|   151           0.00195       -0.35938        0.20312        0.00000
 BRILLOUIN|   152           0.00195       -0.35938        0.23438        0.00000
 BRILLOUIN|   153           0.00195       -0.35938        0.26562        0.00000
 BRILLOUIN|   154           0.00195       -0.35938        0.29688        0.00000
 BRILLOUIN|   155           0.00195       -0.35938        0.32812        0.00000
 BRILLOUIN|   156           0.00195       -0.35938        0.35938        0.00000
 BRILLOUIN|   157           0.00195       -0.35938        0.39062        0.00000
 BRILLOUIN|   158           0.00195       -0.35938        0.42188        0.00000
 BRILLOUIN|   159           0.00195       -0.35938        0.45312        0.00000
 BRILLOUIN|   160           0.00195       -0.35938        0.48438        0.00000
 BRILLOUIN|   161           0.00195       -0.32812       -0.48438        0.00000
 BRILLOUIN|   162           0.00195       -0.32812       -0.45312        0.00000
 BRILLOUIN|   163           0.00195       -0.32812       -0.42188        0.00000
 BRILLOUIN|   164           0.00195       -0.32812       -0.39062        0.00000
 BRILLOUIN|   165           0.00195       -0.32812       -0.35938        0.00000
 BRILLOUIN|   166           0.00195       -0.32812       -0.32812        0.00000
 BRILLOUIN|   167           0.00195       -0.32812       -0.29688        0.00000
 BRILLOUIN|   168           0.00195       -0.32812       -0.26562        0.00000
 BRILLOUIN|   169           0.00195       -0.32812       -0.23438        0.00000
 BRILLOUIN|   170           0.00195       -0.32812       -0.20312        0.00000
 BRILLOUIN|   171           0.00195       -0.32812       -0.17188        0.00000
 BRILLOUIN|   172           0.00195       -0.32812       -0.14062        0.00000
 BRILLOUIN|   173           0.00195       -0.32812       -0.10938        0.00000
 BRILLOUIN|   174           0.00195       -0.32812       -0.07812        0.00000
 BRILLOUIN|   175           0.00195       -0.32812       -0.04688        0.00000
 BRILLOUIN|   176           0.00195       -0.32812       -0.01562        0.00000
 BRILLOUIN|   177           0.00195       -0.32812        0.01562        0.00000
 BRILLOUIN|   178           0.00195       -0.32812        0.04688        0.00000
 BRILLOUIN|   179           0.00195       -0.32812        0.07812        0.00000
 BRILLOUIN|   180           0.00195       -0.32812        0.10938        0.00000
 BRILLOUIN|   181           0.00195       -0.32812        0.14062        0.00000
 BRILLOUIN|   182           0.00195       -0.32812        0.17188        0.00000
 BRILLOUIN|   183           0.00195       -0.32812        0.20312        0.00000
 BRILLOUIN|   184           0.00195       -0.32812        0.23438        0.00000
 BRILLOUIN|   185           0.00195       -0.32812        0.26562        0.00000
 BRILLOUIN|   186           0.00195       -0.32812        0.29688        0.00000
 BRILLOUIN|   187           0.00195       -0.32812        0.32812        0.00000
 BRILLOUIN|   188           0.00195       -0.32812        0.35938        0.00000
 BRILLOUIN|   189           0.00195       -0.32812        0.39062        0.00000
 BRILLOUIN|   190           0.00195       -0.32812        0.42188        0.00000
 BRILLOUIN|   191           0.00195       -0.32812        0.45312        0.00000
 BRILLOUIN|   192           0.00195       -0.32812        0.48438        0.00000
 BRILLOUIN|   193           0.00195       -0.29688       -0.48438        0.00000
 BRILLOUIN|   194           0.00195       -0.29688       -0.45312        0.00000
 BRILLOUIN|   195           0.00195       -0.29688       -0.42188        0.00000
 BRILLOUIN|   196           0.00195       -0.29688       -0.39062        0.00000
 BRILLOUIN|   197           0.00195       -0.29688       -0.35938        0.00000
 BRILLOUIN|   198           0.00195       -0.29688       -0.32812        0.00000
 BRILLOUIN|   199           0.00195       -0.29688       -0.29688        0.00000
 BRILLOUIN|   200           0.00195       -0.29688       -0.26562        0.00000
 BRILLOUIN|   201           0.00195       -0.29688       -0.23438        0.00000
 BRILLOUIN|   202           0.00195       -0.29688       -0.20312        0.00000
 BRILLOUIN|   203           0.00195       -0.29688       -0.17188        0.00000
 BRILLOUIN|   204           0.00195       -0.29688       -0.14062        0.00000
 BRILLOUIN|   205           0.00195       -0.29688       -0.10938        0.00000
 BRILLOUIN|   206           0.00195       -0.29688       -0.07812        0.00000
 BRILLOUIN|   207           0.00195       -0.29688       -0.04688        0.00000
 BRILLOUIN|   208           0.00195       -0.29688       -0.01562        0.00000
 BRILLOUIN|   209           0.00195       -0.29688        0.01562        0.00000
 BRILLOUIN|   210           0.00195       -0.29688        0.04688        0.00000
 BRILLOUIN|   211           0.00195       -0.29688        0.07812        0.00000
 BRILLOUIN|   212           0.00195       -0.29688        0.10938        0.00000
 BRILLOUIN|   213           0.00195       -0.29688        0.14062        0.00000
 BRILLOUIN|   214           0.00195       -0.29688        0.17188        0.00000
 BRILLOUIN|   215           0.00195       -0.29688        0.20312        0.00000
 BRILLOUIN|   216           0.00195       -0.29688        0.23438        0.00000
 BRILLOUIN|   217           0.00195       -0.29688        0.26562        0.00000
 BRILLOUIN|   218           0.00195       -0.29688        0.29688        0.00000
 BRILLOUIN|   219           0.00195       -0.29688        0.32812        0.00000
 BRILLOUIN|   220           0.00195       -0.29688        0.35938        0.00000
 BRILLOUIN|   221           0.00195       -0.29688        0.39062        0.00000
 BRILLOUIN|   222           0.00195       -0.29688        0.42188        0.00000
 BRILLOUIN|   223           0.00195       -0.29688        0.45312        0.00000
 BRILLOUIN|   224           0.00195       -0.29688        0.48438        0.00000
 BRILLOUIN|   225           0.00195       -0.26562       -0.48438        0.00000
 BRILLOUIN|   226           0.00195       -0.26562       -0.45312        0.00000
 BRILLOUIN|   227           0.00195       -0.26562       -0.42188        0.00000
 BRILLOUIN|   228           0.00195       -0.26562       -0.39062        0.00000
 BRILLOUIN|   229           0.00195       -0.26562       -0.35938        0.00000
 BRILLOUIN|   230           0.00195       -0.26562       -0.32812        0.00000
 BRILLOUIN|   231           0.00195       -0.26562       -0.29688        0.00000
 BRILLOUIN|   232           0.00195       -0.26562       -0.26562        0.00000
 BRILLOUIN|   233           0.00195       -0.26562       -0.23438        0.00000
 BRILLOUIN|   234           0.00195       -0.26562       -0.20312        0.00000
 BRILLOUIN|   235           0.00195       -0.26562       -0.17188        0.00000
 BRILLOUIN|   236           0.00195       -0.26562       -0.14062        0.00000
 BRILLOUIN|   237           0.00195       -0.26562       -0.10938        0.00000
 BRILLOUIN|   238           0.00195       -0.26562       -0.07812        0.00000
 BRILLOUIN|   239           0.00195       -0.26562       -0.04688        0.00000
 BRILLOUIN|   240           0.00195       -0.26562       -0.01562        0.00000
 BRILLOUIN|   241           0.00195       -0.26562        0.01562        0.00000
 BRILLOUIN|   242           0.00195       -0.26562        0.04688        0.00000
 BRILLOUIN|   243           0.00195       -0.26562        0.07812        0.00000
 BRILLOUIN|   244           0.00195       -0.26562        0.10938        0.00000
 BRILLOUIN|   245           0.00195       -0.26562        0.14062        0.00000
 BRILLOUIN|   246           0.00195       -0.26562        0.17188        0.00000
 BRILLOUIN|   247           0.00195       -0.26562        0.20312        0.00000
 BRILLOUIN|   248           0.00195       -0.26562        0.23438        0.00000
 BRILLOUIN|   249           0.00195       -0.26562        0.26562        0.00000
 BRILLOUIN|   250           0.00195       -0.26562        0.29688        0.00000
 BRILLOUIN|   251           0.00195       -0.26562        0.32812        0.00000
 BRILLOUIN|   252           0.00195       -0.26562        0.35938        0.00000
 BRILLOUIN|   253           0.00195       -0.26562        0.39062        0.00000
 BRILLOUIN|   254           0.00195       -0.26562        0.42188        0.00000
 BRILLOUIN|   255           0.00195       -0.26562        0.45312        0.00000
 BRILLOUIN|   256           0.00195       -0.26562        0.48438        0.00000
 BRILLOUIN|   257           0.00195       -0.23438       -0.48438        0.00000
 BRILLOUIN|   258           0.00195       -0.23438       -0.45312        0.00000
 BRILLOUIN|   259           0.00195       -0.23438       -0.42188        0.00000
 BRILLOUIN|   260           0.00195       -0.23438       -0.39062        0.00000
 BRILLOUIN|   261           0.00195       -0.23438       -0.35938        0.00000
 BRILLOUIN|   262           0.00195       -0.23438       -0.32812        0.00000
 BRILLOUIN|   263           0.00195       -0.23438       -0.29688        0.00000
 BRILLOUIN|   264           0.00195       -0.23438       -0.26562        0.00000
 BRILLOUIN|   265           0.00195       -0.23438       -0.23438        0.00000
 BRILLOUIN|   266           0.00195       -0.23438       -0.20312        0.00000
 BRILLOUIN|   267           0.00195       -0.23438       -0.17188        0.00000
 BRILLOUIN|   268           0.00195       -0.23438       -0.14062        0.00000
 BRILLOUIN|   269           0.00195       -0.23438       -0.10938        0.00000
 BRILLOUIN|   270           0.00195       -0.23438       -0.07812        0.00000
 BRILLOUIN|   271           0.00195       -0.23438       -0.04688        0.00000
 BRILLOUIN|   272           0.00195       -0.23438       -0.01562        0.00000
 BRILLOUIN|   273           0.00195       -0.23438        0.01562        0.00000
 BRILLOUIN|   274           0.00195       -0.23438        0.04688        0.00000
 BRILLOUIN|   275           0.00195       -0.23438        0.07812        0.00000
 BRILLOUIN|   276           0.00195       -0.23438        0.10938        0.00000
 BRILLOUIN|   277           0.00195       -0.23438        0.14062        0.00000
 BRILLOUIN|   278           0.00195       -0.23438        0.17188        0.00000
 BRILLOUIN|   279           0.00195       -0.23438        0.20312        0.00000
 BRILLOUIN|   280           0.00195       -0.23438        0.23438        0.00000
 BRILLOUIN|   281           0.00195       -0.23438        0.26562        0.00000
 BRILLOUIN|   282           0.00195       -0.23438        0.29688        0.00000
 BRILLOUIN|   283           0.00195       -0.23438        0.32812        0.00000
 BRILLOUIN|   284           0.00195       -0.23438        0.35938        0.00000
 BRILLOUIN|   285           0.00195       -0.23438        0.39062        0.00000
 BRILLOUIN|   286           0.00195       -0.23438        0.42188        0.00000
 BRILLOUIN|   287           0.00195       -0.23438        0.45312        0.00000
 BRILLOUIN|   288           0.00195       -0.23438        0.48438        0.00000
 BRILLOUIN|   289           0.00195       -0.20312       -0.48438        0.00000
 BRILLOUIN|   290           0.00195       -0.20312       -0.45312        0.00000
 BRILLOUIN|   291           0.00195       -0.20312       -0.42188        0.00000
 BRILLOUIN|   292           0.00195       -0.20312       -0.39062        0.00000
 BRILLOUIN|   293           0.00195       -0.20312       -0.35938        0.00000
 BRILLOUIN|   294           0.00195       -0.20312       -0.32812        0.00000
 BRILLOUIN|   295           0.00195       -0.20312       -0.29688        0.00000
 BRILLOUIN|   296           0.00195       -0.20312       -0.26562        0.00000
 BRILLOUIN|   297           0.00195       -0.20312       -0.23438        0.00000
 BRILLOUIN|   298           0.00195       -0.20312       -0.20312        0.00000
 BRILLOUIN|   299           0.00195       -0.20312       -0.17188        0.00000
 BRILLOUIN|   300           0.00195       -0.20312       -0.14062        0.00000
 BRILLOUIN|   301           0.00195       -0.20312       -0.10938        0.00000
 BRILLOUIN|   302           0.00195       -0.20312       -0.07812        0.00000
 BRILLOUIN|   303           0.00195       -0.20312       -0.04688        0.00000
 BRILLOUIN|   304           0.00195       -0.20312       -0.01562        0.00000
 BRILLOUIN|   305           0.00195       -0.20312        0.01562        0.00000
 BRILLOUIN|   306           0.00195       -0.20312        0.04688        0.00000
 BRILLOUIN|   307           0.00195       -0.20312        0.07812        0.00000
 BRILLOUIN|   308           0.00195       -0.20312        0.10938        0.00000
 BRILLOUIN|   309           0.00195       -0.20312        0.14062        0.00000
 BRILLOUIN|   310           0.00195       -0.20312        0.17188        0.00000
 BRILLOUIN|   311           0.00195       -0.20312        0.20312        0.00000
 BRILLOUIN|   312           0.00195       -0.20312        0.23438        0.00000
 BRILLOUIN|   313           0.00195       -0.20312        0.26562        0.00000
 BRILLOUIN|   314           0.00195       -0.20312        0.29688        0.00000
 BRILLOUIN|   315           0.00195       -0.20312        0.32812        0.00000
 BRILLOUIN|   316           0.00195       -0.20312        0.35938        0.00000
 BRILLOUIN|   317           0.00195       -0.20312        0.39062        0.00000
 BRILLOUIN|   318           0.00195       -0.20312        0.42188        0.00000
 BRILLOUIN|   319           0.00195       -0.20312        0.45312        0.00000
 BRILLOUIN|   320           0.00195       -0.20312        0.48438        0.00000
 BRILLOUIN|   321           0.00195       -0.17188       -0.48438        0.00000
 BRILLOUIN|   322           0.00195       -0.17188       -0.45312        0.00000
 BRILLOUIN|   323           0.00195       -0.17188       -0.42188        0.00000
 BRILLOUIN|   324           0.00195       -0.17188       -0.39062        0.00000
 BRILLOUIN|   325           0.00195       -0.17188       -0.35938        0.00000
 BRILLOUIN|   326           0.00195       -0.17188       -0.32812        0.00000
 BRILLOUIN|   327           0.00195       -0.17188       -0.29688        0.00000
 BRILLOUIN|   328           0.00195       -0.17188       -0.26562        0.00000
 BRILLOUIN|   329           0.00195       -0.17188       -0.23438        0.00000
 BRILLOUIN|   330           0.00195       -0.17188       -0.20312        0.00000
 BRILLOUIN|   331           0.00195       -0.17188       -0.17188        0.00000
 BRILLOUIN|   332           0.00195       -0.17188       -0.14062        0.00000
 BRILLOUIN|   333           0.00195       -0.17188       -0.10938        0.00000
 BRILLOUIN|   334           0.00195       -0.17188       -0.07812        0.00000
 BRILLOUIN|   335           0.00195       -0.17188       -0.04688        0.00000
 BRILLOUIN|   336           0.00195       -0.17188       -0.01562        0.00000
 BRILLOUIN|   337           0.00195       -0.17188        0.01562        0.00000
 BRILLOUIN|   338           0.00195       -0.17188        0.04688        0.00000
 BRILLOUIN|   339           0.00195       -0.17188        0.07812        0.00000
 BRILLOUIN|   340           0.00195       -0.17188        0.10938        0.00000
 BRILLOUIN|   341           0.00195       -0.17188        0.14062        0.00000
 BRILLOUIN|   342           0.00195       -0.17188        0.17188        0.00000
 BRILLOUIN|   343           0.00195       -0.17188        0.20312        0.00000
 BRILLOUIN|   344           0.00195       -0.17188        0.23438        0.00000
 BRILLOUIN|   345           0.00195       -0.17188        0.26562        0.00000
 BRILLOUIN|   346           0.00195       -0.17188        0.29688        0.00000
 BRILLOUIN|   347           0.00195       -0.17188        0.32812        0.00000
 BRILLOUIN|   348           0.00195       -0.17188        0.35938        0.00000
 BRILLOUIN|   349           0.00195       -0.17188        0.39062        0.00000
 BRILLOUIN|   350           0.00195       -0.17188        0.42188        0.00000
 BRILLOUIN|   351           0.00195       -0.17188        0.45312        0.00000
 BRILLOUIN|   352           0.00195       -0.17188        0.48438        0.00000
 BRILLOUIN|   353           0.00195       -0.14062       -0.48438        0.00000
 BRILLOUIN|   354           0.00195       -0.14062       -0.45312        0.00000
 BRILLOUIN|   355           0.00195       -0.14062       -0.42188        0.00000
 BRILLOUIN|   356           0.00195       -0.14062       -0.39062        0.00000
 BRILLOUIN|   357           0.00195       -0.14062       -0.35938        0.00000
 BRILLOUIN|   358           0.00195       -0.14062       -0.32812        0.00000
 BRILLOUIN|   359           0.00195       -0.14062       -0.29688        0.00000
 BRILLOUIN|   360           0.00195       -0.14062       -0.26562        0.00000
 BRILLOUIN|   361           0.00195       -0.14062       -0.23438        0.00000
 BRILLOUIN|   362           0.00195       -0.14062       -0.20312        0.00000
 BRILLOUIN|   363           0.00195       -0.14062       -0.17188        0.00000
 BRILLOUIN|   364           0.00195       -0.14062       -0.14062        0.00000
 BRILLOUIN|   365           0.00195       -0.14062       -0.10938        0.00000
 BRILLOUIN|   366           0.00195       -0.14062       -0.07812        0.00000
 BRILLOUIN|   367           0.00195       -0.14062       -0.04688        0.00000
 BRILLOUIN|   368           0.00195       -0.14062       -0.01562        0.00000
 BRILLOUIN|   369           0.00195       -0.14062        0.01562        0.00000
 BRILLOUIN|   370           0.00195       -0.14062        0.04688        0.00000
 BRILLOUIN|   371           0.00195       -0.14062        0.07812        0.00000
 BRILLOUIN|   372           0.00195       -0.14062        0.10938        0.00000
 BRILLOUIN|   373           0.00195       -0.14062        0.14062        0.00000
 BRILLOUIN|   374           0.00195       -0.14062        0.17188        0.00000
 BRILLOUIN|   375           0.00195       -0.14062        0.20312        0.00000
 BRILLOUIN|   376           0.00195       -0.14062        0.23438        0.00000
 BRILLOUIN|   377           0.00195       -0.14062        0.26562        0.00000
 BRILLOUIN|   378           0.00195       -0.14062        0.29688        0.00000
 BRILLOUIN|   379           0.00195       -0.14062        0.32812        0.00000
 BRILLOUIN|   380           0.00195       -0.14062        0.35938        0.00000
 BRILLOUIN|   381           0.00195       -0.14062        0.39062        0.00000
 BRILLOUIN|   382           0.00195       -0.14062        0.42188        0.00000
 BRILLOUIN|   383           0.00195       -0.14062        0.45312        0.00000
 BRILLOUIN|   384           0.00195       -0.14062        0.48438        0.00000
 BRILLOUIN|   385           0.00195       -0.10938       -0.48438        0.00000
 BRILLOUIN|   386           0.00195       -0.10938       -0.45312        0.00000
 BRILLOUIN|   387           0.00195       -0.10938       -0.42188        0.00000
 BRILLOUIN|   388           0.00195       -0.10938       -0.39062        0.00000
 BRILLOUIN|   389           0.00195       -0.10938       -0.35938        0.00000
 BRILLOUIN|   390           0.00195       -0.10938       -0.32812        0.00000
 BRILLOUIN|   391           0.00195       -0.10938       -0.29688        0.00000
 BRILLOUIN|   392           0.00195       -0.10938       -0.26562        0.00000
 BRILLOUIN|   393           0.00195       -0.10938       -0.23438        0.00000
 BRILLOUIN|   394           0.00195       -0.10938       -0.20312        0.00000
 BRILLOUIN|   395           0.00195       -0.10938       -0.17188        0.00000
 BRILLOUIN|   396           0.00195       -0.10938       -0.14062        0.00000
 BRILLOUIN|   397           0.00195       -0.10938       -0.10938        0.00000
 BRILLOUIN|   398           0.00195       -0.10938       -0.07812        0.00000
 BRILLOUIN|   399           0.00195       -0.10938       -0.04688        0.00000
 BRILLOUIN|   400           0.00195       -0.10938       -0.01562        0.00000
 BRILLOUIN|   401           0.00195       -0.10938        0.01562        0.00000
 BRILLOUIN|   402           0.00195       -0.10938        0.04688        0.00000
 BRILLOUIN|   403           0.00195       -0.10938        0.07812        0.00000
 BRILLOUIN|   404           0.00195       -0.10938        0.10938        0.00000
 BRILLOUIN|   405           0.00195       -0.10938        0.14062        0.00000
 BRILLOUIN|   406           0.00195       -0.10938        0.17188        0.00000
 BRILLOUIN|   407           0.00195       -0.10938        0.20312        0.00000
 BRILLOUIN|   408           0.00195       -0.10938        0.23438        0.00000
 BRILLOUIN|   409           0.00195       -0.10938        0.26562        0.00000
 BRILLOUIN|   410           0.00195       -0.10938        0.29688        0.00000
 BRILLOUIN|   411           0.00195       -0.10938        0.32812        0.00000
 BRILLOUIN|   412           0.00195       -0.10938        0.35938        0.00000
 BRILLOUIN|   413           0.00195       -0.10938        0.39062        0.00000
 BRILLOUIN|   414           0.00195       -0.10938        0.42188        0.00000
 BRILLOUIN|   415           0.00195       -0.10938        0.45312        0.00000
 BRILLOUIN|   416           0.00195       -0.10938        0.48438        0.00000
 BRILLOUIN|   417           0.00195       -0.07812       -0.48438        0.00000
 BRILLOUIN|   418           0.00195       -0.07812       -0.45312        0.00000
 BRILLOUIN|   419           0.00195       -0.07812       -0.42188        0.00000
 BRILLOUIN|   420           0.00195       -0.07812       -0.39062        0.00000
 BRILLOUIN|   421           0.00195       -0.07812       -0.35938        0.00000
 BRILLOUIN|   422           0.00195       -0.07812       -0.32812        0.00000
 BRILLOUIN|   423           0.00195       -0.07812       -0.29688        0.00000
 BRILLOUIN|   424           0.00195       -0.07812       -0.26562        0.00000
 BRILLOUIN|   425           0.00195       -0.07812       -0.23438        0.00000
 BRILLOUIN|   426           0.00195       -0.07812       -0.20312        0.00000
 BRILLOUIN|   427           0.00195       -0.07812       -0.17188        0.00000
 BRILLOUIN|   428           0.00195       -0.07812       -0.14062        0.00000
 BRILLOUIN|   429           0.00195       -0.07812       -0.10938        0.00000
 BRILLOUIN|   430           0.00195       -0.07812       -0.07812        0.00000
 BRILLOUIN|   431           0.00195       -0.07812       -0.04688        0.00000
 BRILLOUIN|   432           0.00195       -0.07812       -0.01562        0.00000
 BRILLOUIN|   433           0.00195       -0.07812        0.01562        0.00000
 BRILLOUIN|   434           0.00195       -0.07812        0.04688        0.00000
 BRILLOUIN|   435           0.00195       -0.07812        0.07812        0.00000
 BRILLOUIN|   436           0.00195       -0.07812        0.10938        0.00000
 BRILLOUIN|   437           0.00195       -0.07812        0.14062        0.00000
 BRILLOUIN|   438           0.00195       -0.07812        0.17188        0.00000
 BRILLOUIN|   439           0.00195       -0.07812        0.20312        0.00000
 BRILLOUIN|   440           0.00195       -0.07812        0.23438        0.00000
 BRILLOUIN|   441           0.00195       -0.07812        0.26562        0.00000
 BRILLOUIN|   442           0.00195       -0.07812        0.29688        0.00000
 BRILLOUIN|   443           0.00195       -0.07812        0.32812        0.00000
 BRILLOUIN|   444           0.00195       -0.07812        0.35938        0.00000
 BRILLOUIN|   445           0.00195       -0.07812        0.39062        0.00000
 BRILLOUIN|   446           0.00195       -0.07812        0.42188        0.00000
 BRILLOUIN|   447           0.00195       -0.07812        0.45312        0.00000
 BRILLOUIN|   448           0.00195       -0.07812        0.48438        0.00000
 BRILLOUIN|   449           0.00195       -0.04688       -0.48438        0.00000
 BRILLOUIN|   450           0.00195       -0.04688       -0.45312        0.00000
 BRILLOUIN|   451           0.00195       -0.04688       -0.42188        0.00000
 BRILLOUIN|   452           0.00195       -0.04688       -0.39062        0.00000
 BRILLOUIN|   453           0.00195       -0.04688       -0.35938        0.00000
 BRILLOUIN|   454           0.00195       -0.04688       -0.32812        0.00000
 BRILLOUIN|   455           0.00195       -0.04688       -0.29688        0.00000
 BRILLOUIN|   456           0.00195       -0.04688       -0.26562        0.00000
 BRILLOUIN|   457           0.00195       -0.04688       -0.23438        0.00000
 BRILLOUIN|   458           0.00195       -0.04688       -0.20312        0.00000
 BRILLOUIN|   459           0.00195       -0.04688       -0.17188        0.00000
 BRILLOUIN|   460           0.00195       -0.04688       -0.14062        0.00000
 BRILLOUIN|   461           0.00195       -0.04688       -0.10938        0.00000
 BRILLOUIN|   462           0.00195       -0.04688       -0.07812        0.00000
 BRILLOUIN|   463           0.00195       -0.04688       -0.04688        0.00000
 BRILLOUIN|   464           0.00195       -0.04688       -0.01562        0.00000
 BRILLOUIN|   465           0.00195       -0.04688        0.01562        0.00000
 BRILLOUIN|   466           0.00195       -0.04688        0.04688        0.00000
 BRILLOUIN|   467           0.00195       -0.04688        0.07812        0.00000
 BRILLOUIN|   468           0.00195       -0.04688        0.10938        0.00000
 BRILLOUIN|   469           0.00195       -0.04688        0.14062        0.00000
 BRILLOUIN|   470           0.00195       -0.04688        0.17188        0.00000
 BRILLOUIN|   471           0.00195       -0.04688        0.20312        0.00000
 BRILLOUIN|   472           0.00195       -0.04688        0.23438        0.00000
 BRILLOUIN|   473           0.00195       -0.04688        0.26562        0.00000
 BRILLOUIN|   474           0.00195       -0.04688        0.29688        0.00000
 BRILLOUIN|   475           0.00195       -0.04688        0.32812        0.00000
 BRILLOUIN|   476           0.00195       -0.04688        0.35938        0.00000
 BRILLOUIN|   477           0.00195       -0.04688        0.39062        0.00000
 BRILLOUIN|   478           0.00195       -0.04688        0.42188        0.00000
 BRILLOUIN|   479           0.00195       -0.04688        0.45312        0.00000
 BRILLOUIN|   480           0.00195       -0.04688        0.48438        0.00000
 BRILLOUIN|   481           0.00195       -0.01562       -0.48438        0.00000
 BRILLOUIN|   482           0.00195       -0.01562       -0.45312        0.00000
 BRILLOUIN|   483           0.00195       -0.01562       -0.42188        0.00000
 BRILLOUIN|   484           0.00195       -0.01562       -0.39062        0.00000
 BRILLOUIN|   485           0.00195       -0.01562       -0.35938        0.00000
 BRILLOUIN|   486           0.00195       -0.01562       -0.32812        0.00000
 BRILLOUIN|   487           0.00195       -0.01562       -0.29688        0.00000
 BRILLOUIN|   488           0.00195       -0.01562       -0.26562        0.00000
 BRILLOUIN|   489           0.00195       -0.01562       -0.23438        0.00000
 BRILLOUIN|   490           0.00195       -0.01562       -0.20312        0.00000
 BRILLOUIN|   491           0.00195       -0.01562       -0.17188        0.00000
 BRILLOUIN|   492           0.00195       -0.01562       -0.14062        0.00000
 BRILLOUIN|   493           0.00195       -0.01562       -0.10938        0.00000
 BRILLOUIN|   494           0.00195       -0.01562       -0.07812        0.00000
 BRILLOUIN|   495           0.00195       -0.01562       -0.04688        0.00000
 BRILLOUIN|   496           0.00195       -0.01562       -0.01562        0.00000
 BRILLOUIN|   497           0.00195       -0.01562        0.01562        0.00000
 BRILLOUIN|   498           0.00195       -0.01562        0.04688        0.00000
 BRILLOUIN|   499           0.00195       -0.01562        0.07812        0.00000
 BRILLOUIN|   500           0.00195       -0.01562        0.10938        0.00000
 BRILLOUIN|   501           0.00195       -0.01562        0.14062        0.00000
 BRILLOUIN|   502           0.00195       -0.01562        0.17188        0.00000
 BRILLOUIN|   503           0.00195       -0.01562        0.20312        0.00000
 BRILLOUIN|   504           0.00195       -0.01562        0.23438        0.00000
 BRILLOUIN|   505           0.00195       -0.01562        0.26562        0.00000
 BRILLOUIN|   506           0.00195       -0.01562        0.29688        0.00000
 BRILLOUIN|   507           0.00195       -0.01562        0.32812        0.00000
 BRILLOUIN|   508           0.00195       -0.01562        0.35938        0.00000
 BRILLOUIN|   509           0.00195       -0.01562        0.39062        0.00000
 BRILLOUIN|   510           0.00195       -0.01562        0.42188        0.00000
 BRILLOUIN|   511           0.00195       -0.01562        0.45312        0.00000
 BRILLOUIN|   512           0.00195       -0.01562        0.48438        0.00000
 *******************************************************************************

 *******************************************************************************
 *******************************************************************************
 **                                                                           **
 **     #####                         ##              ##                      **
 **    ##   ##            ##          ##              ##                      **
 **   ##     ##                       ##            ######                    **
 **   ##     ##  ##   ##  ##   #####  ##  ##   ####   ##    #####    #####    **
 **   ##     ##  ##   ##  ##  ##      ## ##   ##      ##   ##   ##  ##   ##   **
 **   ##  ## ##  ##   ##  ##  ##      ####     ###    ##   ######   ######    **
 **    ##  ###   ##   ##  ##  ##      ## ##      ##   ##   ##       ##        **
 **     #######   #####   ##   #####  ##  ##  ####    ##    #####   ##        **
 **           ##                                                    ##        **
 **                                                                           **
 **                                                ... make the atoms dance   **
 **                                                                           **
 **            Copyright (C) by CP2K developers group (2000-2025)             **
 **                      J. Chem. Phys. 152, 194103 (2020)                    **
 **                                                                           **
 *******************************************************************************

 DFT| Spin restricted Kohn-Sham (RKS) calculation                            RKS
 DFT| Multiplicity                                                             1
 DFT| Number of spin states                                                    1
 DFT| Charge                                                                   0
 DFT| Self-interaction correction (SIC)                                       NO
 DFT| Cutoffs: density                                              1.000000E-10
 DFT|          gradient                                             1.000000E-10
 DFT|          tau                                                  1.000000E-10
 DFT|          cutoff_smoothing_range                               0.000000E+00
 DFT| XC density smoothing                                                  NONE
 DFT| XC derivatives                                                          PW

 FUNCTIONAL| PBE:
 FUNCTIONAL| J.P.Perdew, K.Burke, M.Ernzerhof, Phys. Rev. Letter, vol. 77, n 18,
 FUNCTIONAL|  pp. 3865-3868, (1996) {spin unpolarized}                          


 QS| Method:                                                                GAPW
 QS| Density plane wave grid type                        NON-SPHERICAL FULLSPACE
 QS| Number of grid levels:                                                    4
 QS| Density cutoff [a.u.]:                                                250.0
 QS| Multi grid cutoff [a.u.]: 1) grid level                               250.0
 QS|                           2) grid level                                83.3
 QS|                           3) grid level                                27.8
 QS|                           4) grid level                                 9.3
 QS| Grid level progression factor:                                          3.0
 QS| Relative density cutoff [a.u.]:                                        50.0
 QS| Interaction thresholds: eps_pgf_orb:                                1.0E-12
 QS|                         eps_filter_matrix:                          0.0E+00
 QS|                         eps_core_charge:                            1.0E-14
 QS|                         eps_rho_gspace:                             1.0E-12
 QS|                         eps_rho_rspace:                             1.0E-12
 QS|                         eps_gvg_rspace:                             1.0E-06
 QS|                         eps_ppl:                                    1.0E-02
 QS|                         eps_ppnl:                                   1.0E-08
 QS| GAPW|      One center basis from orbital basis primitives
 QS| GAPW|                   eps_fit:                                    1.0E-04
 QS| GAPW|                   eps_iso:                                    1.0E-12
 QS| GAPW|                   eps_svd:                                    1.0E-08
 QS| GAPW|                   eps_cpc:                                    1.0E-12
 QS| GAPW|   atom-r-grid: quadrature:                                     GC_LOG
 QS| GAPW|      atom-s-grid:  max l :                                          6
 QS| GAPW|      max_l_rho0 :                                                   2
 QS| GAPW|      At least one kind is NOT PAW, i.e. it has only soft AO 
 QS| GAPW|      The NOT PAW atoms are treated fully GPW


 ATOMIC KIND INFORMATION

  1. Atomic kind: Mo                                    Number of atoms:       1

     Orbital Basis Set                                     aug-SZV-MOLOPT-GTH-SR

       Number of orbital shell sets:                                           1
       Number of orbital shells:                                               8
       Number of primitive Cartesian functions:                                7
       Number of Cartesian basis functions:                                   31
       Number of spherical basis functions:                                   26
       Norm type:                                                              2

       Normalised Cartesian orbitals:

                        Set   Shell   Orbital            Exponent    Coefficient

                          1       1    2s                0.052949       0.001981
                                                         0.083802      -0.010762
                                                         0.189498       0.027372
                                                         0.439257       0.078864
                                                         0.894040       0.689563
                                                         1.999996       0.475974
                                                         2.540273      -1.291314

                          1       2    3s                0.052949      -0.030340
                                                         0.083802      -0.064725
                                                         0.189498      -0.028997
                                                         0.439257       0.016258
                                                         0.894040       0.125661
                                                         1.999996      -0.186721
                                                         2.540273       0.199824

                          1       3    4s                0.052949       0.000293
                                                         0.083802       0.017891
                                                         0.189498       0.174119
                                                         0.439257       0.000338
                                                         0.894040       0.000124
                                                         1.999996       0.000000
                                                         2.540273       0.000000

                          1       4    3px               0.052949       0.000064
                                                         0.083802      -0.000118
                                                         0.189498      -0.006020
                                                         0.439257      -0.180857
                                                         0.894040      -0.605502
                                                         1.999996      -2.548091
                                                         2.540273       2.808966
                          1       4    3py               0.052949       0.000064
                                                         0.083802      -0.000118
                                                         0.189498      -0.006020
                                                         0.439257      -0.180857
                                                         0.894040      -0.605502
                                                         1.999996      -2.548091
                                                         2.540273       2.808966
                          1       4    3pz               0.052949       0.000064
                                                         0.083802      -0.000118
                                                         0.189498      -0.006020
                                                         0.439257      -0.180857
                                                         0.894040      -0.605502
                                                         1.999996      -2.548091
                                                         2.540273       2.808966

                          1       5    4px               0.052949       0.016064
                                                         0.083802       0.029646
                                                         0.189498       0.043571
                                                         0.439257      -0.099073
                                                         0.894040       0.009322
                                                         1.999996       0.000000
                                                         2.540273       0.000000
                          1       5    4py               0.052949       0.016064
                                                         0.083802       0.029646
                                                         0.189498       0.043571
                                                         0.439257      -0.099073
                                                         0.894040       0.009322
                                                         1.999996       0.000000
                                                         2.540273       0.000000
                          1       5    4pz               0.052949       0.016064
                                                         0.083802       0.029646
                                                         0.189498       0.043571
                                                         0.439257      -0.099073
                                                         0.894040       0.009322
                                                         1.999996       0.000000
                                                         2.540273       0.000000

                          1       6    4dx2              0.052949       0.000173
                                                         0.083802       0.001355
                                                         0.189498       0.023725
                                                         0.439257       0.160904
                                                         0.894040       0.370223
                                                         1.999996       2.115795
                                                         2.540273      -1.655651
                          1       6    4dxy              0.052949       0.000300
                                                         0.083802       0.002348
                                                         0.189498       0.041094
                                                         0.439257       0.278694
                                                         0.894040       0.641245
                                                         1.999996       3.664664
                                                         2.540273      -2.867672
                          1       6    4dxz              0.052949       0.000300
                                                         0.083802       0.002348
                                                         0.189498       0.041094
                                                         0.439257       0.278694
                                                         0.894040       0.641245
                                                         1.999996       3.664664
                                                         2.540273      -2.867672
                          1       6    4dy2              0.052949       0.000173
                                                         0.083802       0.001355
                                                         0.189498       0.023725
                                                         0.439257       0.160904
                                                         0.894040       0.370223
                                                         1.999996       2.115795
                                                         2.540273      -1.655651
                          1       6    4dyz              0.052949       0.000300
                                                         0.083802       0.002348
                                                         0.189498       0.041094
                                                         0.439257       0.278694
                                                         0.894040       0.641245
                                                         1.999996       3.664664
                                                         2.540273      -2.867672
                          1       6    4dz2              0.052949       0.000173
                                                         0.083802       0.001355
                                                         0.189498       0.023725
                                                         0.439257       0.160904
                                                         0.894040       0.370223
                                                         1.999996       2.115795
                                                         2.540273      -1.655651

                          1       7    5dx2              0.052949       0.000036
                                                         0.083802       0.003451
                                                         0.189498       0.050397
                                                         0.439257       0.185190
                                                         0.894040      -0.191024
                                                         1.999996       0.000000
                                                         2.540273       0.000000
                          1       7    5dxy              0.052949       0.000062
                                                         0.083802       0.005978
                                                         0.189498       0.087290
                                                         0.439257       0.320758
                                                         0.894040      -0.330863
                                                         1.999996       0.000000
                                                         2.540273       0.000000
                          1       7    5dxz              0.052949       0.000062
                                                         0.083802       0.005978
                                                         0.189498       0.087290
                                                         0.439257       0.320758
                                                         0.894040      -0.330863
                                                         1.999996       0.000000
                                                         2.540273       0.000000
                          1       7    5dy2              0.052949       0.000036
                                                         0.083802       0.003451
                                                         0.189498       0.050397
                                                         0.439257       0.185190
                                                         0.894040      -0.191024
                                                         1.999996       0.000000
                                                         2.540273       0.000000
                          1       7    5dyz              0.052949       0.000062
                                                         0.083802       0.005978
                                                         0.189498       0.087290
                                                         0.439257       0.320758
                                                         0.894040      -0.330863
                                                         1.999996       0.000000
                                                         2.540273       0.000000
                          1       7    5dz2              0.052949       0.000036
                                                         0.083802       0.003451
                                                         0.189498       0.050397
                                                         0.439257       0.185190
                                                         0.894040      -0.191024
                                                         1.999996       0.000000
                                                         2.540273       0.000000

                          1       8    5fx3              0.052949      -0.000274
                                                         0.083802       0.000760
                                                         0.189498       0.005893
                                                         0.439257       0.027686
                                                         0.894040       0.936958
                                                         1.999996       0.000000
                                                         2.540273       0.000000
                          1       8    5fx2y             0.052949      -0.000612
                                                         0.083802       0.001698
                                                         0.189498       0.013177
                                                         0.439257       0.061909
                                                         0.894040       2.095101
                                                         1.999996       0.000000
                                                         2.540273       0.000000
                          1       8    5fx2z             0.052949      -0.000612
                                                         0.083802       0.001698
                                                         0.189498       0.013177
                                                         0.439257       0.061909
                                                         0.894040       2.095101
                                                         1.999996       0.000000
                                                         2.540273       0.000000
                          1       8    5fxy2             0.052949      -0.000612
                                                         0.083802       0.001698
                                                         0.189498       0.013177
                                                         0.439257       0.061909
                                                         0.894040       2.095101
                                                         1.999996       0.000000
                                                         2.540273       0.000000
                          1       8    5fxyz             0.052949      -0.001061
                                                         0.083802       0.002942
                                                         0.189498       0.022824
                                                         0.439257       0.107229
                                                         0.894040       3.628821
                                                         1.999996       0.000000
                                                         2.540273       0.000000
                          1       8    5fxz2             0.052949      -0.000612
                                                         0.083802       0.001698
                                                         0.189498       0.013177
                                                         0.439257       0.061909
                                                         0.894040       2.095101
                                                         1.999996       0.000000
                                                         2.540273       0.000000
                          1       8    5fy3              0.052949      -0.000274
                                                         0.083802       0.000760
                                                         0.189498       0.005893
                                                         0.439257       0.027686
                                                         0.894040       0.936958
                                                         1.999996       0.000000
                                                         2.540273       0.000000
                          1       8    5fy2z             0.052949      -0.000612
                                                         0.083802       0.001698
                                                         0.189498       0.013177
                                                         0.439257       0.061909
                                                         0.894040       2.095101
                                                         1.999996       0.000000
                                                         2.540273       0.000000
                          1       8    5fyz2             0.052949      -0.000612
                                                         0.083802       0.001698
                                                         0.189498       0.013177
                                                         0.439257       0.061909
                                                         0.894040       2.095101
                                                         1.999996       0.000000
                                                         2.540273       0.000000
                          1       8    5fz3              0.052949      -0.000274
                                                         0.083802       0.000760
                                                         0.189498       0.005893
                                                         0.439257       0.027686
                                                         0.894040       0.936958
                                                         1.999996       0.000000
                                                         2.540273       0.000000

     RI Auxiliary Basis Set             RI_aug-SZV-MOLOPT-GTH-SR_N_RI_071_s_p_d_

       Number of orbital shell sets:                                          17
       Number of orbital shells:                                              17
       Number of primitive Cartesian functions:                               17
       Number of Cartesian basis functions:                                  101
       Number of spherical basis functions:                                   71
       Norm type:                                                              2

       Normalised Cartesian orbitals:

                        Set   Shell   Orbital            Exponent    Coefficient

                          1       1    1s                0.131512       0.155645

                          2       1    7px               0.160998       0.145367
                          2       1    7py               0.160998       0.145367
                          2       1    7pz               0.160998       0.145367

                          3       1    2s                0.264634       0.262963

                          4       1   15gx4              0.279187       0.033315
                          4       1   15gx3y             0.279187       0.088144
                          4       1   15gx3z             0.279187       0.088144
                          4       1   15gx2y2            0.279187       0.113794
                          4       1   15gx2yz            0.279187       0.197097
                          4       1   15gx2z2            0.279187       0.113794
                          4       1   15gxy3             0.279187       0.088144
                          4       1   15gxy2z            0.279187       0.197097
                          4       1   15gxyz2            0.279187       0.197097
                          4       1   15gxz3             0.279187       0.088144
                          4       1   15gy4              0.279187       0.033315
                          4       1   15gy3z             0.279187       0.088144
                          4       1   15gy2z2            0.279187       0.113794
                          4       1   15gyz3             0.279187       0.088144
                          4       1   15gz4              0.279187       0.033315

                          5       1    8px               0.394518       0.445680
                          5       1    8py               0.394518       0.445680
                          5       1    8pz               0.394518       0.445680

                          6       1   11dx2              0.395905       0.325233
                          6       1   11dxy              0.395905       0.563320
                          6       1   11dxz              0.395905       0.563320
                          6       1   11dy2              0.395905       0.325233
                          6       1   11dyz              0.395905       0.563320
                          6       1   11dz2              0.395905       0.325233

                          7       1   13fx3              0.522089       0.341099
                          7       1   13fx2y             0.522089       0.762720
                          7       1   13fx2z             0.522089       0.762720
                          7       1   13fxy2             0.522089       0.762720
                          7       1   13fxyz             0.522089       1.321070
                          7       1   13fxz2             0.522089       0.762720
[...]
 J. Chem. Phys. 127, 114105 (2007).
 Gaussian basis sets for accurate calculations on molecular systems in gas and 
 condensed phases.
 https://doi.org/10.1063/1.2770708

 M. Krack.
 Theor. Chem. Acc. 114, 145-152 (2005).
 Pseudopotentials for H to Kr optimized for gradient-corrected 
 exchange-correlation functionals.
 https://doi.org/10.1007/s00214-005-0655-y

 M. Frigo, S. G. Johnson.
 Proc. IEEE 93, 216-231 (2005).
 The design and implementation of FFTW3.
 https://doi.org/10.1109/JPROC.2004.840301

 M. Krack, M. Parrinello.
 Phys. Chem. Chem. Phys. 2, 2105-2112 (2000).
 All-electron ab-initio molecular dynamics.
 https://doi.org/10.1039/b001167n

 G. Lippert, J. Hutter, M. Parrinello.
 Theor. Chem. Acc. 103, 124-140 (1999).
 The Gaussian and augmented-plane-wave density functional method for ab initio 
 molecular dynamics simulations.
 https://doi.org/10.1007/s002140050523

 C. Hartwigsen, S. Goedecker, J. Hutter.
 Phys. Rev. B 58, 3641-3662 (1998).
 Relativistic separable dual-space Gaussian pseudopotentials from H to Rn.
 https://doi.org/10.1103/PhysRevB.58.3641

 S. Goedecker, M. Teter, J. Hutter.
 Phys. Rev. B 54, 1703-1710 (1996).
 Separable dual-space Gaussian pseudopotentials.
 https://doi.org/10.1103/PhysRevB.54.1703

 J. P. Perdew, K. Burke, M. Ernzerhof.
 Phys. Rev. Lett. 77, 3865-3868 (1996).
 Generalized gradient approximation made simple.
 https://doi.org/10.1103/PhysRevLett.77.3865


 -------------------------------------------------------------------------------
 -                                                                             -
 -                                T I M I N G                                  -
 -                                                                             -
 -------------------------------------------------------------------------------
 SUBROUTINE                       CALLS  ASD         SELF TIME        TOTAL TIME
                                MAXIMUM       AVERAGE  MAXIMUM  AVERAGE  MAXIMUM
 CP2K                                 1  1.0     0.03     0.04 23887.81 23888.11
 qs_energies                          1  2.0     0.00     0.00 23818.85 23819.14
 qs_energies_properties               1  3.0     0.00     0.00 23683.62 23683.91
 post_scf_bandstructure               1  4.0     0.00     0.00 23683.62 23683.91
 gw                                   1  5.0     0.00     0.00 23617.64 23617.93
 gw_calc_small_cell_full_kp           1  6.0     0.00     0.00 23437.84 23438.15
 compute_W_real_space                 1  7.0     6.67     6.94 13538.74 13538.93
 fm_to_local_array                 1194  8.1    41.41    45.24  9686.85  9687.35
 mp_sum_dm3                        1312  9.0  9684.02  9685.73  9684.02  9685.73
 dbt_total                      9095758  9.6    17.03    18.53  7634.96  8204.18
 dbt_contract                   3764333 10.4    33.03    35.14  6768.65  7279.80
 dbt_tas_multiply               4687906 12.9     4.63     5.00  6403.59  6932.25
 dbt_tas_total                  4687906 13.9   170.87   178.59  6400.58  6929.46
 compute_chi                          1  7.0     0.06     0.15  5280.63  5280.78
 compute_Sigma_c                      1  7.0     0.00     0.00  3913.70  3913.91
 compute_Minv_and_Vsqrt               1  8.0     0.07     0.07  3492.97  3493.05
 build_2c_coulomb_matrix_kp_sma       2  9.0    16.21    32.87  3478.10  3478.14
 build_2c_coulomb_matrix_kp_sma  655360 10.0  2895.29  2937.01  2895.29  2937.01
 dbt_tas_estimate_result_nze    2343953 13.4   361.82   378.16  2457.23  2885.88
 G_times_3c                       21966  8.0     7.04     7.46  2465.30  2836.91
 dbt_tas_dbm                    4687906 14.9     4.07     4.47  2509.12  2676.78
 dbm_multiply                   4687906 16.9  2500.42  2668.02  2500.42  2668.02
 contract_to_Sigma                  198  8.0    18.19    20.01  1980.03  2121.57
 contract_M_occ_vir_to_chi          109  8.0    31.17    34.84  1515.43  2029.75
 contract_W                         103  8.0     6.45     6.85  1775.96  1985.07
 mp_sync                        ******* 12.5  1344.96  1955.93  1344.96  1955.93
 dbt_copy                       5778536 10.9    24.25    26.60  1022.37  1366.30
 contract_to_Sigma_3c_x_G        897529  9.0     1.21     1.31  1225.20  1322.86
 dbm_reserve_blocks             ******* 16.6   881.77  1126.43   881.77  1126.43
 dbt_tas_mm_2                   1449676 16.0     1.35     1.75   875.92  1110.99
 dbt_reshape                    4198693 11.8   603.09   773.00   757.43  1028.39
 dbt_tas_mm_3T                  2218060 16.1     1.37     1.57   928.08  1003.67
 convert_to_new_pgrid           ******* 14.9    26.33    28.49   872.96  1000.40
 dbm_copy                       9375812 15.9   846.62   974.84   846.62   974.84
 dbt_tas_reserve_blocks_index   ******* 15.8    11.83    12.94   595.24   831.22
 contract_to_Sigma_contract       20010  9.0     6.17     6.67   725.21   817.10
 dbt_tas_mm_1N                  1250778 15.5     0.69     0.77   700.19   784.89
 reshape_mm_small               4687906 14.9   275.83   288.38   658.28   717.07
 get_t_3c_int                   3007875  9.3     8.31     8.85   496.31   629.66
 dbt_tas_reshape                5594882 15.5    26.35    27.63   519.83   614.59
 mp_alltoall_i22                 832043 10.3   492.63   611.26   492.63   611.26
 fm_to_local_tensor              165292  9.0     1.45     1.54   549.28   607.66
 G_occ_vir                          137  8.0     0.32     0.36   589.93   597.86
 compute_Sigma_x                      1  7.0     0.00     0.00   584.22   584.47
 dbcsr_complete_redistribute     466653  9.9     7.52    11.69   472.90   576.77
 dbt_tas_reserve_blocks_templat 6780934 14.1    11.17    12.37   340.70   528.63
 dbt_tas_replicate              4687906 14.9    77.85    82.69   412.07   467.40
 copy_fm_to_dbcsr                215679  9.5     0.43     0.46   349.80   458.48
 dbm_add                        4687906 14.9   352.86   441.86   352.86   441.86
 global_matrix_to_local_matrix   165292 10.0     1.62     2.66   162.30   425.66
 send_data                       165292 11.0     0.10     0.12   110.81   351.51
 communicate_buffer              165292 12.0     1.33    11.71   110.70   351.39
 dbt_tas_reshape_buffer_obtain  5594882 16.5    86.13   106.25   269.39   349.35
 get_V_tr_R                          38  9.0     0.10     0.11   333.64   333.71
 mult_W_with_Minv                    34  8.0     0.50     0.58   326.14   326.15
 mp_waitall_1                   1298215 11.6   113.71   322.68   113.71   322.68
 dbt_remap                       462521 11.0    42.80    46.57   259.77   304.48
 mp_sum_dm                       655408 10.0   272.52   303.96   272.52   303.96
 dbt_tas_create_split           ******* 15.9     7.90     8.61   277.28   290.12
 copy_dbcsr_to_fm                250974  8.3     1.26     1.33   259.80   288.01
 dbt_tas_create_split_rows_or_c ******* 16.9    29.07    31.10   269.38   281.51
 reshape_mm_compatible          4687906 14.9    38.81    41.28   260.68   271.44
 local_dbt_to_global_fm             103  8.0     0.16     0.17   234.53   234.54
 dbt_tas_distribution_new       ******* 15.7   104.41   108.70   201.06   209.12
 dbt_tas_reshape_buffer_fill    5594882 16.5   181.48   205.69   181.48   205.69
 add_V_L                         327680 10.0     6.39   204.86     6.39   204.86
 dbcsr_desymmetrize_deep         365390  8.6     2.85     3.28   158.86   188.64
 create_and_init_bs_env_for_gw        1  6.0     0.00     0.00   179.80   179.87
 change_split                   6147971 15.4    12.82    13.90   170.90   178.39
 dbt_tas_copy                   2160000 12.3    91.02   112.28   144.48   173.30
 add_rs_to_ikp                  *******  9.9   164.78   169.85   164.78   169.85
 parallel_gemm_cfm               316088  8.9     0.20     0.22   134.33   169.61
 parallel_gemm_cfm_cosma         316088  9.9   134.13   169.42   134.13   169.42
 dbt_reserve_blocks_index       4729043 13.7     4.68     5.62    88.34   158.82
 dbt_reserve_blocks_index_array 4534105 12.8     4.02     4.74    86.97   157.88
 trafo_rs_to_ikp                  12080  8.1     4.57     5.67   152.58   156.15
 mp_cart_create                 ******* 16.5   136.37   141.96   149.95   156.03
 compute_3c_integrals                 1  7.0     0.05     0.05   154.13   154.13
 build_3c_integrals                   1  8.0   140.44   148.85   145.50   153.82
 dbt_destroy                    ******* 10.7   143.37   149.53   146.28   152.48
 local_dbt_to_global_mat          98983  9.0     0.34     0.37    72.54   144.74
 scf_env_do_scf                       1  3.0     0.00     0.00   134.97   134.97
 scf_env_do_scf_inner_loop           49  4.0     0.01     0.01   134.97   134.97
 add_ikp_to_rs                  *******  9.9   129.64   132.60   129.64   132.60
 local_matrix_to_global_matrix    98983 10.0     0.18     0.19    58.33   131.04
 dbt_communicate_buffer         4198693 12.8    76.71   127.15    76.71   127.15
 dbt_copy_nocomm                 420663 11.0    63.81    93.11    77.28   127.09
 qs_scf_new_mos_kp                   49  5.0     0.00     0.00   123.89   123.91
 do_general_diag_kp                  49  6.0     0.23     0.24   123.89   123.91
 compute_QP_energies                  1  7.0     0.09     0.15   120.55   121.58
 trafo_to_k_and_nn                80868  8.0     0.29     0.33   120.24   121.32
 add_ikp_to_all_rs                11160  8.0     3.95     4.57   110.75   113.94
 comm_data                        98983 11.0     0.22     1.28    48.12   112.13
 mp_waitall_2                    197966 12.0    45.21   110.20    45.21   110.20
 mp_comm_dup                    ******* 18.5    86.41    90.36    93.55    97.86
 dbt_tas_merge                  1449676 15.0    22.41    27.97    56.87    84.72
 mp_cart_sub                     502035 10.3    82.09    82.17    82.09    82.17
 mp_sum_dv                        88052  8.9    18.54    75.65    18.54    75.65
 fm_MWM_R_t_to_local_tensor_W_R      34  8.0     0.02     0.03    74.68    74.72
 bs_env_release                       1  2.0     0.09     0.17    65.77    68.43
 fm_add_ikp_to_rs                140288  9.0    40.47    41.67    63.33    65.68
 power                            23000  8.0     3.99     4.33    64.31    64.99
 mp_comm_split_direct           ******* 17.9    58.02    61.03    61.65    64.88
 diag_complex                     23000  9.0    60.32    60.98    60.32    60.98
 mp_comm_free                   ******* 15.5    57.14    60.61    57.14    60.61
 dbt_permute_index              ******* 12.1    47.46    52.17    53.54    59.02
 destroy_t_1d                       110  8.0     0.18     0.22    55.74    58.98
 dbt_tas_create_new             ******* 15.2    47.23    52.23    47.23    52.23
 reshape_mm_template             925042 15.5    29.68    31.54    44.63    47.30
 dbt_align_index                7031859 11.4     7.48     8.11    44.30    47.21
 fm_trafo_rs_to_ikp               80868  9.0    23.60    30.02    40.37    43.92
 dos_pdos_ldos                        1  5.0     0.00     0.00    42.08    42.10
 dbt_tas_communicate_buffer     ******* 17.2    27.86    41.73    27.86    41.73
 dbt_distribution_new_expert    1255636 12.2     6.78     7.44    38.78    41.36
 add_R                          *******  9.3    25.69    27.95    36.81    40.14
 cp_cfm_heevd                      4884  7.5     0.00     0.00    40.00    40.10
 cp_cfm_heevd_base                 4884  8.5    39.99    40.09    39.99    40.09
 SOC_ev                            2344  6.0     0.02     0.03    38.37    38.41
 mp_sum_i                       3969316 15.8    37.11    38.26    37.11    38.26
 dbt_tas_reshape_communicate_bu 5594882 16.5     3.40     3.74    26.23    37.82
 send_sizes_1                    165292 11.0     0.09     0.10    36.11    37.27
 dbt_tas_mp_comm                2797441 13.0     4.50     4.90    34.73    36.73
 get_Minv_Vtr_Minv_R                  1  8.0     0.02     0.02    35.17    35.18
 get_data                        165292 11.0     3.30    34.72     3.54    35.02
 dbt_reserve_blocks_template     420663 12.0     0.87     1.15    13.47    33.98
 mp_max_i                       7529131 11.4     4.73    32.03     4.73    32.03
 mp_cart_get                    ******* 16.0    22.13    24.58    22.13    24.58
 mp_comm_size                   ******* 16.2    22.34    23.81    22.34    23.81
 kpoint_density_transform            49  7.0     0.07     0.08    23.77    23.79
 dbm_filter                     6960187 14.8    21.85    23.28    21.85    23.28
 dbt_create_new                  627818 11.7     4.54     4.95    20.75    22.41
 is_cell_in_index_to_cell       *******  9.7    19.66    21.44    19.66    21.44
 dbcsr_finalize                 1935393 11.2     3.91     4.72    17.91    21.17
 cp_fm_start_copy_general        150528  7.3     0.62     1.15    19.08    19.78
 rskp_transform                   57208  7.1     0.37    18.68     0.37    18.68
 mp_isend_dv                    ******* 12.3     3.26    17.42     3.26    17.42
 create_and_init_bs_env               1  5.0     0.00     0.00    16.90    16.90
 compute_cfm_mo_coeff_kp_and_ei       1  6.0     0.00     0.00    16.90    16.90
 dbt_create_matrix               165292 10.0     0.92     0.96    16.35    16.79
 dbt_create_3c_R1_R2                 70  8.0     3.24     3.45    15.82    16.48
 mp_alltoall_i                  ******* 15.3    15.50    16.16    15.50    16.16
 mp_allgather_i                  301056  8.3    14.49    15.90    14.49    15.90
 mp_comm_rank                   ******* 16.2    14.15    15.22    14.15    15.22
 destroy_t_2d                        70  8.0     4.28     5.63    12.92    14.72
 dbt_create_template            4321173  9.0    13.32    13.96    13.32    13.96
 heuristic_RI_regularization          1  7.0     0.00     0.00    13.90    13.90
 mp_alltoall_d11v               2496129 10.8     3.80    13.74     3.80    13.74
 rsmat_to_kp                       7032  7.2     0.05     0.05    13.39    13.51
 dbcsr_filter_anytype            741754 11.0     1.70     1.89     9.47    13.04
 cp_cfm_geeig_canon                1172  7.0     0.00     0.00    12.14    12.17
 dbt_pgrid_create_expert        1255639 13.2     1.62     1.86    10.63    11.32
 set_blocks                       98983 11.0     1.07     5.82     3.68    10.68
 dbcsr_merge_all                 721066 12.0     6.70     7.69     8.71    10.15
 dbt_tas_reshape_get_coord      5594882 16.5     9.23     9.93     9.23     9.93
 dbm_scale                      5535130 14.5     8.54     9.12     8.54     9.12
 dbt_nd_mp_comm                  627813 11.7     1.11     1.27     8.08     8.66
 mp_alltoall_i11v               1765349 10.6     4.02     8.52     4.02     8.52
 transform_dmat                   25088  8.0     0.16     8.49     0.16     8.49
 dbt_tas_replicate_communicate_ 3459858 15.9     2.05     2.25     5.66     7.50
 mp_sum_l                       ******* 15.0     6.73     7.22     6.73     7.22
 soc                                  1  5.0     0.00     0.00     7.00     7.00
 H_KS_spinor_kp                       1  6.0     0.01     0.01     6.97     6.98
 dbt_create_2c_R                    110  8.0     5.11     6.57     5.46     6.92
 dbt_tas_reshape_alltoall       5594882 16.5     3.20     3.65     5.62     6.18
 send_sizes_2                    165292 11.0     0.10     0.10     5.87     6.02
 qs_ks_update_qs_env                 49  5.0     0.00     0.00     5.82     5.84
 qs_ks_build_kohn_sham_matrix        52  7.1     0.01     0.01     5.76     5.78
 rebuild_ks_matrix                   49  6.0     0.00     0.00     5.42     5.44
 transfer_pw2rs                     261 10.6     0.00     0.00     5.30     5.39
 sum_up_and_integrate                52  8.1     0.00     0.00     0.87     5.33
 integrate_v_rspace                  52  9.1     0.00     0.01     0.87     5.33
 transfer_pw2rs_250                 105 11.0     0.06     0.06     5.10     5.19
 dbcsr_work_create              1086456 10.6     3.09     3.62     4.32     5.09
 setup_cells_3c                       1  7.0     0.08     0.08     4.73     4.73
 integrate_vhg0_rspace               52  8.1     0.00     0.00     4.59     4.67
 build_3c_integral_block           4271  8.0     1.73     1.92     4.53     4.64
 dbcsr_iterator_start           4083497 11.1     3.75     3.86     4.43     4.55
 grid_integrate_task_list            52 10.1     0.08     4.54     0.08     4.54
 build_2c_integrals                  38 10.0     0.08     2.19     0.19     4.53
 dbt_copy_matrix_to_tensor       165292 10.0     1.06     1.14     3.92     4.48
 qs_rho_update_rho_low               50  5.0     0.00     0.00     4.36     4.37
 calculate_rho_elec                  50  6.0     0.00     0.00     4.36     4.36
 fill_buffer                      98983 11.0     1.49     4.20     1.63     4.35
 mp_isend_im2                   ******* 12.9     0.22     4.25     0.22     4.25
 mp_bcast_i                     ******* 17.9     3.35     4.23     3.35     4.23
 transfer_rs2pw                     254  8.4     0.00     0.00     4.11     4.19
 density_rs2pw                       50  7.0     0.00     0.00     4.10     4.18
 transfer_rs2pw_250                 104 10.0     0.08     0.09     4.04     4.13
 mp_sendrecv_dv                   32258 10.4     4.02     4.10     4.02     4.10
 dbcsr_create_new               1513669 10.2     3.06     3.21     3.85     4.05
 grid_collocate_task_list            50  7.0     0.26     4.02     0.26     4.02
 dbt_distribution_destroy       1255636 12.2     2.69     3.17     3.44     4.01
 comm_size                        98983 11.0     0.08     0.08     3.67     3.99
 alloc_block_3c                       1  9.0     0.18     0.19     3.79     3.86
 mp_cart_rank                   ******* 15.9     3.42     3.75     3.42     3.75
 copy_fm_to_dbcsr_bc             215679 10.5     0.98     1.04     3.42     3.67
 dbcsr_work_destroy_all         1086456 11.5     2.13     2.53     2.98     3.53
 trafo_V_xc_R_to_kp                   1  7.0     0.00     0.01     3.48     3.49
 mp_bcast_iv                     602179  8.3     2.92     3.45     2.92     3.45
 mp_dims_create                 ******* 14.2     3.10     3.44     3.10     3.44
 dbt_tas_merge_communicate_buff 1449676 16.0     0.85     1.07     2.25     3.32
 reserve_blocks                  165292 11.0     0.38     0.42     2.80     3.27
 dbt_tas_replicate_alltoall     3459858 15.9     1.78     2.14     2.74     3.14
 compute_proj_mo_on_kind           1172  6.0     0.02     0.02     3.02     3.07
 dbt_reserve_blocks_matrix_to_t  165292 11.0     0.46     0.48     2.49     3.04
 dbcsr_data_release             ******* 12.0     2.45     2.91     2.45     2.91
 dbcsr_iterator_stop            4083497 11.1     2.10     2.27     2.58     2.80
 dbt_buffer_get_index           ******* 16.8     2.33     2.71     2.33     2.71
 hybrid_alltoall_any             365390  9.6     0.85     0.89     1.38     2.69
 abc_contract_xsmm                29365  9.0     2.54     2.63     2.54     2.63
 dbcsr_data_new                 ******* 11.5     2.22     2.60     2.22     2.60
 setup_parallelization_Delta_R        1  7.0     0.00     0.00     2.54     2.55
 compute_n_tensor_ops_Delta_R         1  8.0     0.54     1.09     2.54     2.54
 -------------------------------------------------------------------------------

 The number of warnings for this run is : 1
 
 -------------------------------------------------------------------------------
  **** **** ******  **  PROGRAM ENDED AT                 2025-09-18 12:42:35.396
 ***** ** ***  *** **   PROGRAM RAN ON                                 n2lcn0135
 **    ****   ******    PROGRAM RAN BY                                  metdyn02
 ***** **    ** ** **   PROGRAM PROCESS ID                                833000
  **** **  *******  **  PROGRAM STOPPED IN /scratch/hpc-prf-metdyn/metdyn02_Remi
                                           /05_TMD_new/paperbenchmarksMoS2/timep
                                           oints/34
