 DBCSR| CPU Multiplication driver                                           BLAS (U)
 DBCSR| Multrec recursion limit                                              512 (U)
 DBCSR| Multiplication stack size                                           1000 (D)
 DBCSR| Maximum elements for images                                    UNLIMITED (U)
 DBCSR| Multiplicative factor virtual images                                   1 (U)
 DBCSR| Use multiplication densification                                       T (D)
 DBCSR| Multiplication size stacks                                             3 (U)
 DBCSR| Use memory pool for CPU allocation                                     F (U)
 DBCSR| Number of 3D layers                                               SINGLE (U)
 DBCSR| Use MPI memory allocation                                              F (U)
 DBCSR| Use RMA algorithm                                                      F (U)
 DBCSR| Use Communication thread                                               T (U)
 DBCSR| Communication thread load                                             60 (D)
 DBCSR| MPI: My process id                                                     0
 DBCSR| MPI: Number of processes                                              96
 DBCSR| OMP: Current number of threads                                         8
 DBCSR| OMP: Max number of threads                                             8
 DBCSR| Split modifier for TAS multiplication algorithm                  1.0E+00 (U)


  **** **** ******  **  PROGRAM STARTED AT               2024-12-11 16:19:52.287
 ***** ** ***  *** **   PROGRAM STARTED ON                          f01r01c04s11
 **    ****   ******    PROGRAM STARTED BY                               di38fab
 ***** **    ** ** **   PROGRAM PROCESS ID                                731355
  **** **  *******  **  PROGRAM STARTED IN /hppfs/scratch/04/di38fab/04_TMD/4_WS
                                           e2_

 CP2K| version string:                 CP2K version 2024.2 (Development Version)
 CP2K| source code revision number:                                  git:9b99305
 CP2K| cp2kflags: omp libint fftw3 libxc parallel scalapack max_contr=4         
 CP2K| is freely available from                            https://www.cp2k.org/
 CP2K| Program compiled at                         Fri Aug 30 17:20:17 CEST 2024
 CP2K| Program compiled on                                               login04
 CP2K| Program compiled for                                        Supermuc-foss
 CP2K| Data directory path                  /hppfs/work/pn36zo/di38fab/cp2k/data
 CP2K| Input file name                                                    GW.inp

 GLOBAL| Force Environment number                                              1
 GLOBAL| Basis set file name            ../BASIS_AUG_MOLOPT/BASIS_GTH_MOLOPT_AUG
 GLOBAL| Potential file name            /hppfs/work/pn36zo/di38fab/cp2k/data/GTH
 GLOBAL| MM Potential file name                                     MM_POTENTIAL
 GLOBAL| Coordinate file name                                      __STD_INPUT__
 GLOBAL| Method name                                                        CP2K
 GLOBAL| Project name                                                       WSe2
 GLOBAL| Run type                                                         ENERGY
 GLOBAL| FFT library                                                       FFTW3
 GLOBAL| Diagonalization library                                       ScaLAPACK
 GLOBAL| DGEMM library                                                      BLAS
 GLOBAL| Orthonormality check for eigenvectors                          DISABLED
 GLOBAL| Matrix multiplication library                                 ScaLAPACK
 GLOBAL| All-to-all communication in single precision                          F
 GLOBAL| FFTs using library dependent lengths                                  F
 GLOBAL| Grid backend                                                       AUTO
 GLOBAL| Global print level                                               MEDIUM
 GLOBAL| MPI I/O enabled                                                       T
 GLOBAL| Total number of message passing processes                            96
 GLOBAL| Number of threads for this process                                    8
 GLOBAL| This output is from process                                           0
 GLOBAL| Stack size for threads created by OpenMP (OMP_STACKSIZE)        default
 GLOBAL| CPU model name             Intel(R) Xeon(R) Platinum 8174 CPU @ 3.10GHz

 MEMORY| system memory details [Kb]
 MEMORY|                        rank 0           min           max       average
 MEMORY| MemTotal            792068884     792068880     792068924     792068896
 MEMORY| MemFree             779030104     779030104     779243844     779132520
 MEMORY| Buffers                     0             0             0             0
 MEMORY| Cached                2304860       2287996       2313312       2299951
 MEMORY| Slab                  1102076       1078764       1103988       1092448
 MEMORY| SReclaimable           243416        235008        249568        241741
 MEMORY| MemLikelyFree       781578380     781578380     781791536     781674213


 *** Fundamental physical constants (SI units) ***

 *** Literature: B. J. Mohr and B. N. Taylor,
 ***             CODATA recommended values of the fundamental physical
 ***             constants: 2006, Web Version 5.1
 ***             http://physics.nist.gov/constants

 Speed of light in vacuum [m/s]                             2.99792458000000E+08
 Magnetic constant or permeability of vacuum [N/A**2]       1.25663706143592E-06
 Electric constant or permittivity of vacuum [F/m]          8.85418781762039E-12
 Planck constant (h) [J*s]                                  6.62606896000000E-34
 Planck constant (h-bar) [J*s]                              1.05457162825177E-34
 Elementary charge [C]                                      1.60217648700000E-19
 Electron mass [kg]                                         9.10938215000000E-31
 Electron g factor [ ]                                     -2.00231930436220E+00
 Proton mass [kg]                                           1.67262163700000E-27
 Fine-structure constant                                    7.29735253760000E-03
 Rydberg constant [1/m]                                     1.09737315685270E+07
 Avogadro constant [1/mol]                                  6.02214179000000E+23
 Boltzmann constant [J/K]                                   1.38065040000000E-23
 Atomic mass unit [kg]                                      1.66053878200000E-27
 Bohr radius [m]                                            5.29177208590000E-11

 *** Conversion factors ***

 [u] -> [a.u.]                                              1.82288848426455E+03
 [Angstrom] -> [Bohr] = [a.u.]                              1.88972613288564E+00
 [a.u.] = [Bohr] -> [Angstrom]                              5.29177208590000E-01
 [a.u.] -> [s]                                              2.41888432650478E-17
 [a.u.] -> [fs]                                             2.41888432650478E-02
 [a.u.] -> [J]                                              4.35974393937059E-18
 [a.u.] -> [N]                                              8.23872205491840E-08
 [a.u.] -> [K]                                              3.15774647902944E+05
 [a.u.] -> [kJ/mol]                                         2.62549961709828E+03
 [a.u.] -> [kcal/mol]                                       6.27509468713739E+02
 [a.u.] -> [Pa]                                             2.94210107994716E+13
 [a.u.] -> [bar]                                            2.94210107994716E+08
 [a.u.] -> [atm]                                            2.90362800883016E+08
 [a.u.] -> [eV]                                             2.72113838565563E+01
 [a.u.] -> [Hz]                                             6.57968392072181E+15
 [a.u.] -> [1/cm] (wave numbers)                            2.19474631370540E+05
 [a.u./Bohr**2] -> [1/cm]                                   5.14048714338585E+03
 

 CELL_TOP| Volume [angstrom^3]:                                       143.098933
 CELL_TOP| Vector a [angstrom     3.319     0.000     0.000   |a| =     3.319000
 CELL_TOP| Vector b [angstrom    -1.659     2.874     0.000   |b| =     3.319000
 CELL_TOP| Vector c [angstrom     0.000     0.000    15.000   |c| =    15.000000
 CELL_TOP| Angle (b,c), alpha [degree]:                                90.000000
 CELL_TOP| Angle (a,c), beta  [degree]:                                90.000000
 CELL_TOP| Angle (a,b), gamma [degree]:                               120.000000
 CELL_TOP| Numerically orthorhombic:                                          NO
 CELL_TOP| Periodicity                                                        XY

 GENERATE|  Preliminary Number of Bonds generated:                             0
 GENERATE|  Achieved consistency in connectivity generation.

 CELL| Volume [angstrom^3]:                                           143.098933
 CELL| Vector a [angstrom]:       3.319     0.000     0.000   |a| =     3.319000
 CELL| Vector b [angstrom]:      -1.659     2.874     0.000   |b| =     3.319000
 CELL| Vector c [angstrom]:       0.000     0.000    15.000   |c| =    15.000000
 CELL| Angle (b,c), alpha [degree]:                                    90.000000
 CELL| Angle (a,c), beta  [degree]:                                    90.000000
 CELL| Angle (a,b), gamma [degree]:                                   120.000000
 CELL| Numerically orthorhombic:                                              NO
 CELL| Periodicity                                                            XY

 CELL_REF| Volume [angstrom^3]:                                       143.098933
 CELL_REF| Vector a [angstrom     3.319     0.000     0.000   |a| =     3.319000
 CELL_REF| Vector b [angstrom    -1.659     2.874     0.000   |b| =     3.319000
 CELL_REF| Vector c [angstrom     0.000     0.000    15.000   |c| =    15.000000
 CELL_REF| Angle (b,c), alpha [degree]:                                90.000000
 CELL_REF| Angle (a,c), beta  [degree]:                                90.000000
 CELL_REF| Angle (a,b), gamma [degree]:                               120.000000
 CELL_REF| Numerically orthorhombic:                                          NO
 CELL_REF| Periodicity                                                        XY

 *** WARNING in cryssym.F:180 :: Symmetry library SPGLIB not available ***


 *******************************************************************************
                                    Kpoints
 *******************************************************************************
 BRILLOUIN| K-point scheme                                        Monkhorst-Pack
 BRILLOUIN| K-Point grid                                            32   32    1
 BRILLOUIN| Accuracy in Symmetry determination                      0.100000E-05
 BRILLOUIN| K-Point point group symmetrization                               OFF
 BRILLOUIN| Wavefunction type                                            COMPLEX
 BRILLOUIN| List of Kpoints [2 Pi/Bohr]                                      512
 BRILLOUIN| Number           Weight            X              Y              Z
 BRILLOUIN|     1           0.00195       -0.48438       -0.48438        0.00000
 BRILLOUIN|     2           0.00195       -0.48438       -0.45312        0.00000
 BRILLOUIN|     3           0.00195       -0.48438       -0.42188        0.00000
 BRILLOUIN|     4           0.00195       -0.48438       -0.39062        0.00000
 BRILLOUIN|     5           0.00195       -0.48438       -0.35938        0.00000
 BRILLOUIN|     6           0.00195       -0.48438       -0.32812        0.00000
 BRILLOUIN|     7           0.00195       -0.48438       -0.29688        0.00000
 BRILLOUIN|     8           0.00195       -0.48438       -0.26562        0.00000
 BRILLOUIN|     9           0.00195       -0.48438       -0.23438        0.00000
 BRILLOUIN|    10           0.00195       -0.48438       -0.20312        0.00000
 BRILLOUIN|    11           0.00195       -0.48438       -0.17188        0.00000
 BRILLOUIN|    12           0.00195       -0.48438       -0.14062        0.00000
 BRILLOUIN|    13           0.00195       -0.48438       -0.10938        0.00000
 BRILLOUIN|    14           0.00195       -0.48438       -0.07812        0.00000
 BRILLOUIN|    15           0.00195       -0.48438       -0.04688        0.00000
 BRILLOUIN|    16           0.00195       -0.48438       -0.01562        0.00000
 BRILLOUIN|    17           0.00195       -0.48438        0.01562        0.00000
 BRILLOUIN|    18           0.00195       -0.48438        0.04688        0.00000
 BRILLOUIN|    19           0.00195       -0.48438        0.07812        0.00000
 BRILLOUIN|    20           0.00195       -0.48438        0.10938        0.00000
 BRILLOUIN|    21           0.00195       -0.48438        0.14062        0.00000
 BRILLOUIN|    22           0.00195       -0.48438        0.17188        0.00000
 BRILLOUIN|    23           0.00195       -0.48438        0.20312        0.00000
 BRILLOUIN|    24           0.00195       -0.48438        0.23438        0.00000
 BRILLOUIN|    25           0.00195       -0.48438        0.26562        0.00000
 BRILLOUIN|    26           0.00195       -0.48438        0.29688        0.00000
 BRILLOUIN|    27           0.00195       -0.48438        0.32812        0.00000
 BRILLOUIN|    28           0.00195       -0.48438        0.35938        0.00000
 BRILLOUIN|    29           0.00195       -0.48438        0.39062        0.00000
 BRILLOUIN|    30           0.00195       -0.48438        0.42188        0.00000
 BRILLOUIN|    31           0.00195       -0.48438        0.45312        0.00000
 BRILLOUIN|    32           0.00195       -0.48438        0.48438        0.00000
 BRILLOUIN|    33           0.00195       -0.45312       -0.48438        0.00000
 BRILLOUIN|    34           0.00195       -0.45312       -0.45312        0.00000
 BRILLOUIN|    35           0.00195       -0.45312       -0.42188        0.00000
 BRILLOUIN|    36           0.00195       -0.45312       -0.39062        0.00000
 BRILLOUIN|    37           0.00195       -0.45312       -0.35938        0.00000
 BRILLOUIN|    38           0.00195       -0.45312       -0.32812        0.00000
 BRILLOUIN|    39           0.00195       -0.45312       -0.29688        0.00000
 BRILLOUIN|    40           0.00195       -0.45312       -0.26562        0.00000
 BRILLOUIN|    41           0.00195       -0.45312       -0.23438        0.00000
 BRILLOUIN|    42           0.00195       -0.45312       -0.20312        0.00000
 BRILLOUIN|    43           0.00195       -0.45312       -0.17188        0.00000
 BRILLOUIN|    44           0.00195       -0.45312       -0.14062        0.00000
 BRILLOUIN|    45           0.00195       -0.45312       -0.10938        0.00000
 BRILLOUIN|    46           0.00195       -0.45312       -0.07812        0.00000
 BRILLOUIN|    47           0.00195       -0.45312       -0.04688        0.00000
 BRILLOUIN|    48           0.00195       -0.45312       -0.01562        0.00000
 BRILLOUIN|    49           0.00195       -0.45312        0.01562        0.00000
 BRILLOUIN|    50           0.00195       -0.45312        0.04688        0.00000
 BRILLOUIN|    51           0.00195       -0.45312        0.07812        0.00000
 BRILLOUIN|    52           0.00195       -0.45312        0.10938        0.00000
 BRILLOUIN|    53           0.00195       -0.45312        0.14062        0.00000
 BRILLOUIN|    54           0.00195       -0.45312        0.17188        0.00000
 BRILLOUIN|    55           0.00195       -0.45312        0.20312        0.00000
 BRILLOUIN|    56           0.00195       -0.45312        0.23438        0.00000
 BRILLOUIN|    57           0.00195       -0.45312        0.26562        0.00000
 BRILLOUIN|    58           0.00195       -0.45312        0.29688        0.00000
 BRILLOUIN|    59           0.00195       -0.45312        0.32812        0.00000
 BRILLOUIN|    60           0.00195       -0.45312        0.35938        0.00000
 BRILLOUIN|    61           0.00195       -0.45312        0.39062        0.00000
 BRILLOUIN|    62           0.00195       -0.45312        0.42188        0.00000
 BRILLOUIN|    63           0.00195       -0.45312        0.45312        0.00000
 BRILLOUIN|    64           0.00195       -0.45312        0.48438        0.00000
 BRILLOUIN|    65           0.00195       -0.42188       -0.48438        0.00000
 BRILLOUIN|    66           0.00195       -0.42188       -0.45312        0.00000
 BRILLOUIN|    67           0.00195       -0.42188       -0.42188        0.00000
 BRILLOUIN|    68           0.00195       -0.42188       -0.39062        0.00000
 BRILLOUIN|    69           0.00195       -0.42188       -0.35938        0.00000
 BRILLOUIN|    70           0.00195       -0.42188       -0.32812        0.00000
 BRILLOUIN|    71           0.00195       -0.42188       -0.29688        0.00000
 BRILLOUIN|    72           0.00195       -0.42188       -0.26562        0.00000
 BRILLOUIN|    73           0.00195       -0.42188       -0.23438        0.00000
 BRILLOUIN|    74           0.00195       -0.42188       -0.20312        0.00000
 BRILLOUIN|    75           0.00195       -0.42188       -0.17188        0.00000
 BRILLOUIN|    76           0.00195       -0.42188       -0.14062        0.00000
 BRILLOUIN|    77           0.00195       -0.42188       -0.10938        0.00000
 BRILLOUIN|    78           0.00195       -0.42188       -0.07812        0.00000
 BRILLOUIN|    79           0.00195       -0.42188       -0.04688        0.00000
 BRILLOUIN|    80           0.00195       -0.42188       -0.01562        0.00000
 BRILLOUIN|    81           0.00195       -0.42188        0.01562        0.00000
 BRILLOUIN|    82           0.00195       -0.42188        0.04688        0.00000
 BRILLOUIN|    83           0.00195       -0.42188        0.07812        0.00000
 BRILLOUIN|    84           0.00195       -0.42188        0.10938        0.00000
 BRILLOUIN|    85           0.00195       -0.42188        0.14062        0.00000
 BRILLOUIN|    86           0.00195       -0.42188        0.17188        0.00000
 BRILLOUIN|    87           0.00195       -0.42188        0.20312        0.00000
 BRILLOUIN|    88           0.00195       -0.42188        0.23438        0.00000
 BRILLOUIN|    89           0.00195       -0.42188        0.26562        0.00000
 BRILLOUIN|    90           0.00195       -0.42188        0.29688        0.00000
 BRILLOUIN|    91           0.00195       -0.42188        0.32812        0.00000
 BRILLOUIN|    92           0.00195       -0.42188        0.35938        0.00000
 BRILLOUIN|    93           0.00195       -0.42188        0.39062        0.00000
 BRILLOUIN|    94           0.00195       -0.42188        0.42188        0.00000
 BRILLOUIN|    95           0.00195       -0.42188        0.45312        0.00000
 BRILLOUIN|    96           0.00195       -0.42188        0.48438        0.00000
 BRILLOUIN|    97           0.00195       -0.39062       -0.48438        0.00000
 BRILLOUIN|    98           0.00195       -0.39062       -0.45312        0.00000
 BRILLOUIN|    99           0.00195       -0.39062       -0.42188        0.00000
 BRILLOUIN|   100           0.00195       -0.39062       -0.39062        0.00000
 BRILLOUIN|   101           0.00195       -0.39062       -0.35938        0.00000
 BRILLOUIN|   102           0.00195       -0.39062       -0.32812        0.00000
 BRILLOUIN|   103           0.00195       -0.39062       -0.29688        0.00000
 BRILLOUIN|   104           0.00195       -0.39062       -0.26562        0.00000
 BRILLOUIN|   105           0.00195       -0.39062       -0.23438        0.00000
 BRILLOUIN|   106           0.00195       -0.39062       -0.20312        0.00000
 BRILLOUIN|   107           0.00195       -0.39062       -0.17188        0.00000
 BRILLOUIN|   108           0.00195       -0.39062       -0.14062        0.00000
 BRILLOUIN|   109           0.00195       -0.39062       -0.10938        0.00000
 BRILLOUIN|   110           0.00195       -0.39062       -0.07812        0.00000
 BRILLOUIN|   111           0.00195       -0.39062       -0.04688        0.00000
 BRILLOUIN|   112           0.00195       -0.39062       -0.01562        0.00000
 BRILLOUIN|   113           0.00195       -0.39062        0.01562        0.00000
 BRILLOUIN|   114           0.00195       -0.39062        0.04688        0.00000
 BRILLOUIN|   115           0.00195       -0.39062        0.07812        0.00000
 BRILLOUIN|   116           0.00195       -0.39062        0.10938        0.00000
 BRILLOUIN|   117           0.00195       -0.39062        0.14062        0.00000
 BRILLOUIN|   118           0.00195       -0.39062        0.17188        0.00000
 BRILLOUIN|   119           0.00195       -0.39062        0.20312        0.00000
 BRILLOUIN|   120           0.00195       -0.39062        0.23438        0.00000
 BRILLOUIN|   121           0.00195       -0.39062        0.26562        0.00000
 BRILLOUIN|   122           0.00195       -0.39062        0.29688        0.00000
 BRILLOUIN|   123           0.00195       -0.39062        0.32812        0.00000
 BRILLOUIN|   124           0.00195       -0.39062        0.35938        0.00000
 BRILLOUIN|   125           0.00195       -0.39062        0.39062        0.00000
 BRILLOUIN|   126           0.00195       -0.39062        0.42188        0.00000
 BRILLOUIN|   127           0.00195       -0.39062        0.45312        0.00000
 BRILLOUIN|   128           0.00195       -0.39062        0.48438        0.00000
 BRILLOUIN|   129           0.00195       -0.35938       -0.48438        0.00000
 BRILLOUIN|   130           0.00195       -0.35938       -0.45312        0.00000
 BRILLOUIN|   131           0.00195       -0.35938       -0.42188        0.00000
 BRILLOUIN|   132           0.00195       -0.35938       -0.39062        0.00000
 BRILLOUIN|   133           0.00195       -0.35938       -0.35938        0.00000
 BRILLOUIN|   134           0.00195       -0.35938       -0.32812        0.00000
 BRILLOUIN|   135           0.00195       -0.35938       -0.29688        0.00000
 BRILLOUIN|   136           0.00195       -0.35938       -0.26562        0.00000
 BRILLOUIN|   137           0.00195       -0.35938       -0.23438        0.00000
 BRILLOUIN|   138           0.00195       -0.35938       -0.20312        0.00000
 BRILLOUIN|   139           0.00195       -0.35938       -0.17188        0.00000
 BRILLOUIN|   140           0.00195       -0.35938       -0.14062        0.00000
 BRILLOUIN|   141           0.00195       -0.35938       -0.10938        0.00000
 BRILLOUIN|   142           0.00195       -0.35938       -0.07812        0.00000
 BRILLOUIN|   143           0.00195       -0.35938       -0.04688        0.00000
 BRILLOUIN|   144           0.00195       -0.35938       -0.01562        0.00000
 BRILLOUIN|   145           0.00195       -0.35938        0.01562        0.00000
 BRILLOUIN|   146           0.00195       -0.35938        0.04688        0.00000
 BRILLOUIN|   147           0.00195       -0.35938        0.07812        0.00000
 BRILLOUIN|   148           0.00195       -0.35938        0.10938        0.00000
 BRILLOUIN|   149           0.00195       -0.35938        0.14062        0.00000
 BRILLOUIN|   150           0.00195       -0.35938        0.17188        0.00000
 BRILLOUIN|   151           0.00195       -0.35938        0.20312        0.00000
 BRILLOUIN|   152           0.00195       -0.35938        0.23438        0.00000
 BRILLOUIN|   153           0.00195       -0.35938        0.26562        0.00000
 BRILLOUIN|   154           0.00195       -0.35938        0.29688        0.00000
 BRILLOUIN|   155           0.00195       -0.35938        0.32812        0.00000
 BRILLOUIN|   156           0.00195       -0.35938        0.35938        0.00000
 BRILLOUIN|   157           0.00195       -0.35938        0.39062        0.00000
 BRILLOUIN|   158           0.00195       -0.35938        0.42188        0.00000
 BRILLOUIN|   159           0.00195       -0.35938        0.45312        0.00000
 BRILLOUIN|   160           0.00195       -0.35938        0.48438        0.00000
 BRILLOUIN|   161           0.00195       -0.32812       -0.48438        0.00000
 BRILLOUIN|   162           0.00195       -0.32812       -0.45312        0.00000
 BRILLOUIN|   163           0.00195       -0.32812       -0.42188        0.00000
 BRILLOUIN|   164           0.00195       -0.32812       -0.39062        0.00000
 BRILLOUIN|   165           0.00195       -0.32812       -0.35938        0.00000
 BRILLOUIN|   166           0.00195       -0.32812       -0.32812        0.00000
 BRILLOUIN|   167           0.00195       -0.32812       -0.29688        0.00000
 BRILLOUIN|   168           0.00195       -0.32812       -0.26562        0.00000
 BRILLOUIN|   169           0.00195       -0.32812       -0.23438        0.00000
 BRILLOUIN|   170           0.00195       -0.32812       -0.20312        0.00000
 BRILLOUIN|   171           0.00195       -0.32812       -0.17188        0.00000
 BRILLOUIN|   172           0.00195       -0.32812       -0.14062        0.00000
 BRILLOUIN|   173           0.00195       -0.32812       -0.10938        0.00000
 BRILLOUIN|   174           0.00195       -0.32812       -0.07812        0.00000
 BRILLOUIN|   175           0.00195       -0.32812       -0.04688        0.00000
 BRILLOUIN|   176           0.00195       -0.32812       -0.01562        0.00000
 BRILLOUIN|   177           0.00195       -0.32812        0.01562        0.00000
 BRILLOUIN|   178           0.00195       -0.32812        0.04688        0.00000
 BRILLOUIN|   179           0.00195       -0.32812        0.07812        0.00000
 BRILLOUIN|   180           0.00195       -0.32812        0.10938        0.00000
 BRILLOUIN|   181           0.00195       -0.32812        0.14062        0.00000
 BRILLOUIN|   182           0.00195       -0.32812        0.17188        0.00000
 BRILLOUIN|   183           0.00195       -0.32812        0.20312        0.00000
 BRILLOUIN|   184           0.00195       -0.32812        0.23438        0.00000
 BRILLOUIN|   185           0.00195       -0.32812        0.26562        0.00000
 BRILLOUIN|   186           0.00195       -0.32812        0.29688        0.00000
 BRILLOUIN|   187           0.00195       -0.32812        0.32812        0.00000
 BRILLOUIN|   188           0.00195       -0.32812        0.35938        0.00000
 BRILLOUIN|   189           0.00195       -0.32812        0.39062        0.00000
 BRILLOUIN|   190           0.00195       -0.32812        0.42188        0.00000
 BRILLOUIN|   191           0.00195       -0.32812        0.45312        0.00000
 BRILLOUIN|   192           0.00195       -0.32812        0.48438        0.00000
 BRILLOUIN|   193           0.00195       -0.29688       -0.48438        0.00000
 BRILLOUIN|   194           0.00195       -0.29688       -0.45312        0.00000
 BRILLOUIN|   195           0.00195       -0.29688       -0.42188        0.00000
 BRILLOUIN|   196           0.00195       -0.29688       -0.39062        0.00000
 BRILLOUIN|   197           0.00195       -0.29688       -0.35938        0.00000
 BRILLOUIN|   198           0.00195       -0.29688       -0.32812        0.00000
 BRILLOUIN|   199           0.00195       -0.29688       -0.29688        0.00000
 BRILLOUIN|   200           0.00195       -0.29688       -0.26562        0.00000
 BRILLOUIN|   201           0.00195       -0.29688       -0.23438        0.00000
 BRILLOUIN|   202           0.00195       -0.29688       -0.20312        0.00000
 BRILLOUIN|   203           0.00195       -0.29688       -0.17188        0.00000
 BRILLOUIN|   204           0.00195       -0.29688       -0.14062        0.00000
 BRILLOUIN|   205           0.00195       -0.29688       -0.10938        0.00000
 BRILLOUIN|   206           0.00195       -0.29688       -0.07812        0.00000
 BRILLOUIN|   207           0.00195       -0.29688       -0.04688        0.00000
 BRILLOUIN|   208           0.00195       -0.29688       -0.01562        0.00000
 BRILLOUIN|   209           0.00195       -0.29688        0.01562        0.00000
 BRILLOUIN|   210           0.00195       -0.29688        0.04688        0.00000
 BRILLOUIN|   211           0.00195       -0.29688        0.07812        0.00000
 BRILLOUIN|   212           0.00195       -0.29688        0.10938        0.00000
 BRILLOUIN|   213           0.00195       -0.29688        0.14062        0.00000
 BRILLOUIN|   214           0.00195       -0.29688        0.17188        0.00000
 BRILLOUIN|   215           0.00195       -0.29688        0.20312        0.00000
 BRILLOUIN|   216           0.00195       -0.29688        0.23438        0.00000
 BRILLOUIN|   217           0.00195       -0.29688        0.26562        0.00000
 BRILLOUIN|   218           0.00195       -0.29688        0.29688        0.00000
 BRILLOUIN|   219           0.00195       -0.29688        0.32812        0.00000
 BRILLOUIN|   220           0.00195       -0.29688        0.35938        0.00000
 BRILLOUIN|   221           0.00195       -0.29688        0.39062        0.00000
 BRILLOUIN|   222           0.00195       -0.29688        0.42188        0.00000
 BRILLOUIN|   223           0.00195       -0.29688        0.45312        0.00000
 BRILLOUIN|   224           0.00195       -0.29688        0.48438        0.00000
 BRILLOUIN|   225           0.00195       -0.26562       -0.48438        0.00000
 BRILLOUIN|   226           0.00195       -0.26562       -0.45312        0.00000
 BRILLOUIN|   227           0.00195       -0.26562       -0.42188        0.00000
 BRILLOUIN|   228           0.00195       -0.26562       -0.39062        0.00000
 BRILLOUIN|   229           0.00195       -0.26562       -0.35938        0.00000
 BRILLOUIN|   230           0.00195       -0.26562       -0.32812        0.00000
 BRILLOUIN|   231           0.00195       -0.26562       -0.29688        0.00000
 BRILLOUIN|   232           0.00195       -0.26562       -0.26562        0.00000
 BRILLOUIN|   233           0.00195       -0.26562       -0.23438        0.00000
 BRILLOUIN|   234           0.00195       -0.26562       -0.20312        0.00000
 BRILLOUIN|   235           0.00195       -0.26562       -0.17188        0.00000
 BRILLOUIN|   236           0.00195       -0.26562       -0.14062        0.00000
 BRILLOUIN|   237           0.00195       -0.26562       -0.10938        0.00000
 BRILLOUIN|   238           0.00195       -0.26562       -0.07812        0.00000
 BRILLOUIN|   239           0.00195       -0.26562       -0.04688        0.00000
 BRILLOUIN|   240           0.00195       -0.26562       -0.01562        0.00000
 BRILLOUIN|   241           0.00195       -0.26562        0.01562        0.00000
 BRILLOUIN|   242           0.00195       -0.26562        0.04688        0.00000
 BRILLOUIN|   243           0.00195       -0.26562        0.07812        0.00000
 BRILLOUIN|   244           0.00195       -0.26562        0.10938        0.00000
 BRILLOUIN|   245           0.00195       -0.26562        0.14062        0.00000
 BRILLOUIN|   246           0.00195       -0.26562        0.17188        0.00000
 BRILLOUIN|   247           0.00195       -0.26562        0.20312        0.00000
 BRILLOUIN|   248           0.00195       -0.26562        0.23438        0.00000
 BRILLOUIN|   249           0.00195       -0.26562        0.26562        0.00000
 BRILLOUIN|   250           0.00195       -0.26562        0.29688        0.00000
 BRILLOUIN|   251           0.00195       -0.26562        0.32812        0.00000
 BRILLOUIN|   252           0.00195       -0.26562        0.35938        0.00000
 BRILLOUIN|   253           0.00195       -0.26562        0.39062        0.00000
 BRILLOUIN|   254           0.00195       -0.26562        0.42188        0.00000
 BRILLOUIN|   255           0.00195       -0.26562        0.45312        0.00000
 BRILLOUIN|   256           0.00195       -0.26562        0.48438        0.00000
 BRILLOUIN|   257           0.00195       -0.23438       -0.48438        0.00000
 BRILLOUIN|   258           0.00195       -0.23438       -0.45312        0.00000
 BRILLOUIN|   259           0.00195       -0.23438       -0.42188        0.00000
 BRILLOUIN|   260           0.00195       -0.23438       -0.39062        0.00000
 BRILLOUIN|   261           0.00195       -0.23438       -0.35938        0.00000
 BRILLOUIN|   262           0.00195       -0.23438       -0.32812        0.00000
 BRILLOUIN|   263           0.00195       -0.23438       -0.29688        0.00000
 BRILLOUIN|   264           0.00195       -0.23438       -0.26562        0.00000
 BRILLOUIN|   265           0.00195       -0.23438       -0.23438        0.00000
 BRILLOUIN|   266           0.00195       -0.23438       -0.20312        0.00000
 BRILLOUIN|   267           0.00195       -0.23438       -0.17188        0.00000
 BRILLOUIN|   268           0.00195       -0.23438       -0.14062        0.00000
 BRILLOUIN|   269           0.00195       -0.23438       -0.10938        0.00000
 BRILLOUIN|   270           0.00195       -0.23438       -0.07812        0.00000
 BRILLOUIN|   271           0.00195       -0.23438       -0.04688        0.00000
 BRILLOUIN|   272           0.00195       -0.23438       -0.01562        0.00000
 BRILLOUIN|   273           0.00195       -0.23438        0.01562        0.00000
 BRILLOUIN|   274           0.00195       -0.23438        0.04688        0.00000
 BRILLOUIN|   275           0.00195       -0.23438        0.07812        0.00000
 BRILLOUIN|   276           0.00195       -0.23438        0.10938        0.00000
 BRILLOUIN|   277           0.00195       -0.23438        0.14062        0.00000
 BRILLOUIN|   278           0.00195       -0.23438        0.17188        0.00000
 BRILLOUIN|   279           0.00195       -0.23438        0.20312        0.00000
 BRILLOUIN|   280           0.00195       -0.23438        0.23438        0.00000
 BRILLOUIN|   281           0.00195       -0.23438        0.26562        0.00000
 BRILLOUIN|   282           0.00195       -0.23438        0.29688        0.00000
 BRILLOUIN|   283           0.00195       -0.23438        0.32812        0.00000
 BRILLOUIN|   284           0.00195       -0.23438        0.35938        0.00000
 BRILLOUIN|   285           0.00195       -0.23438        0.39062        0.00000
 BRILLOUIN|   286           0.00195       -0.23438        0.42188        0.00000
 BRILLOUIN|   287           0.00195       -0.23438        0.45312        0.00000
 BRILLOUIN|   288           0.00195       -0.23438        0.48438        0.00000
 BRILLOUIN|   289           0.00195       -0.20312       -0.48438        0.00000
 BRILLOUIN|   290           0.00195       -0.20312       -0.45312        0.00000
 BRILLOUIN|   291           0.00195       -0.20312       -0.42188        0.00000
 BRILLOUIN|   292           0.00195       -0.20312       -0.39062        0.00000
 BRILLOUIN|   293           0.00195       -0.20312       -0.35938        0.00000
 BRILLOUIN|   294           0.00195       -0.20312       -0.32812        0.00000
 BRILLOUIN|   295           0.00195       -0.20312       -0.29688        0.00000
 BRILLOUIN|   296           0.00195       -0.20312       -0.26562        0.00000
 BRILLOUIN|   297           0.00195       -0.20312       -0.23438        0.00000
 BRILLOUIN|   298           0.00195       -0.20312       -0.20312        0.00000
 BRILLOUIN|   299           0.00195       -0.20312       -0.17188        0.00000
 BRILLOUIN|   300           0.00195       -0.20312       -0.14062        0.00000
 BRILLOUIN|   301           0.00195       -0.20312       -0.10938        0.00000
 BRILLOUIN|   302           0.00195       -0.20312       -0.07812        0.00000
 BRILLOUIN|   303           0.00195       -0.20312       -0.04688        0.00000
 BRILLOUIN|   304           0.00195       -0.20312       -0.01562        0.00000
 BRILLOUIN|   305           0.00195       -0.20312        0.01562        0.00000
 BRILLOUIN|   306           0.00195       -0.20312        0.04688        0.00000
 BRILLOUIN|   307           0.00195       -0.20312        0.07812        0.00000
 BRILLOUIN|   308           0.00195       -0.20312        0.10938        0.00000
 BRILLOUIN|   309           0.00195       -0.20312        0.14062        0.00000
 BRILLOUIN|   310           0.00195       -0.20312        0.17188        0.00000
 BRILLOUIN|   311           0.00195       -0.20312        0.20312        0.00000
 BRILLOUIN|   312           0.00195       -0.20312        0.23438        0.00000
 BRILLOUIN|   313           0.00195       -0.20312        0.26562        0.00000
 BRILLOUIN|   314           0.00195       -0.20312        0.29688        0.00000
 BRILLOUIN|   315           0.00195       -0.20312        0.32812        0.00000
 BRILLOUIN|   316           0.00195       -0.20312        0.35938        0.00000
 BRILLOUIN|   317           0.00195       -0.20312        0.39062        0.00000
 BRILLOUIN|   318           0.00195       -0.20312        0.42188        0.00000
 BRILLOUIN|   319           0.00195       -0.20312        0.45312        0.00000
 BRILLOUIN|   320           0.00195       -0.20312        0.48438        0.00000
 BRILLOUIN|   321           0.00195       -0.17188       -0.48438        0.00000
 BRILLOUIN|   322           0.00195       -0.17188       -0.45312        0.00000
 BRILLOUIN|   323           0.00195       -0.17188       -0.42188        0.00000
 BRILLOUIN|   324           0.00195       -0.17188       -0.39062        0.00000
 BRILLOUIN|   325           0.00195       -0.17188       -0.35938        0.00000
 BRILLOUIN|   326           0.00195       -0.17188       -0.32812        0.00000
 BRILLOUIN|   327           0.00195       -0.17188       -0.29688        0.00000
 BRILLOUIN|   328           0.00195       -0.17188       -0.26562        0.00000
 BRILLOUIN|   329           0.00195       -0.17188       -0.23438        0.00000
 BRILLOUIN|   330           0.00195       -0.17188       -0.20312        0.00000
 BRILLOUIN|   331           0.00195       -0.17188       -0.17188        0.00000
 BRILLOUIN|   332           0.00195       -0.17188       -0.14062        0.00000
 BRILLOUIN|   333           0.00195       -0.17188       -0.10938        0.00000
 BRILLOUIN|   334           0.00195       -0.17188       -0.07812        0.00000
 BRILLOUIN|   335           0.00195       -0.17188       -0.04688        0.00000
 BRILLOUIN|   336           0.00195       -0.17188       -0.01562        0.00000
 BRILLOUIN|   337           0.00195       -0.17188        0.01562        0.00000
 BRILLOUIN|   338           0.00195       -0.17188        0.04688        0.00000
 BRILLOUIN|   339           0.00195       -0.17188        0.07812        0.00000
 BRILLOUIN|   340           0.00195       -0.17188        0.10938        0.00000
 BRILLOUIN|   341           0.00195       -0.17188        0.14062        0.00000
 BRILLOUIN|   342           0.00195       -0.17188        0.17188        0.00000
 BRILLOUIN|   343           0.00195       -0.17188        0.20312        0.00000
 BRILLOUIN|   344           0.00195       -0.17188        0.23438        0.00000
 BRILLOUIN|   345           0.00195       -0.17188        0.26562        0.00000
 BRILLOUIN|   346           0.00195       -0.17188        0.29688        0.00000
 BRILLOUIN|   347           0.00195       -0.17188        0.32812        0.00000
 BRILLOUIN|   348           0.00195       -0.17188        0.35938        0.00000
 BRILLOUIN|   349           0.00195       -0.17188        0.39062        0.00000
 BRILLOUIN|   350           0.00195       -0.17188        0.42188        0.00000
 BRILLOUIN|   351           0.00195       -0.17188        0.45312        0.00000
 BRILLOUIN|   352           0.00195       -0.17188        0.48438        0.00000
 BRILLOUIN|   353           0.00195       -0.14062       -0.48438        0.00000
 BRILLOUIN|   354           0.00195       -0.14062       -0.45312        0.00000
 BRILLOUIN|   355           0.00195       -0.14062       -0.42188        0.00000
 BRILLOUIN|   356           0.00195       -0.14062       -0.39062        0.00000
 BRILLOUIN|   357           0.00195       -0.14062       -0.35938        0.00000
 BRILLOUIN|   358           0.00195       -0.14062       -0.32812        0.00000
 BRILLOUIN|   359           0.00195       -0.14062       -0.29688        0.00000
 BRILLOUIN|   360           0.00195       -0.14062       -0.26562        0.00000
 BRILLOUIN|   361           0.00195       -0.14062       -0.23438        0.00000
 BRILLOUIN|   362           0.00195       -0.14062       -0.20312        0.00000
 BRILLOUIN|   363           0.00195       -0.14062       -0.17188        0.00000
 BRILLOUIN|   364           0.00195       -0.14062       -0.14062        0.00000
 BRILLOUIN|   365           0.00195       -0.14062       -0.10938        0.00000
 BRILLOUIN|   366           0.00195       -0.14062       -0.07812        0.00000
 BRILLOUIN|   367           0.00195       -0.14062       -0.04688        0.00000
 BRILLOUIN|   368           0.00195       -0.14062       -0.01562        0.00000
 BRILLOUIN|   369           0.00195       -0.14062        0.01562        0.00000
 BRILLOUIN|   370           0.00195       -0.14062        0.04688        0.00000
 BRILLOUIN|   371           0.00195       -0.14062        0.07812        0.00000
 BRILLOUIN|   372           0.00195       -0.14062        0.10938        0.00000
 BRILLOUIN|   373           0.00195       -0.14062        0.14062        0.00000
 BRILLOUIN|   374           0.00195       -0.14062        0.17188        0.00000
 BRILLOUIN|   375           0.00195       -0.14062        0.20312        0.00000
 BRILLOUIN|   376           0.00195       -0.14062        0.23438        0.00000
 BRILLOUIN|   377           0.00195       -0.14062        0.26562        0.00000
 BRILLOUIN|   378           0.00195       -0.14062        0.29688        0.00000
 BRILLOUIN|   379           0.00195       -0.14062        0.32812        0.00000
 BRILLOUIN|   380           0.00195       -0.14062        0.35938        0.00000
 BRILLOUIN|   381           0.00195       -0.14062        0.39062        0.00000
 BRILLOUIN|   382           0.00195       -0.14062        0.42188        0.00000
 BRILLOUIN|   383           0.00195       -0.14062        0.45312        0.00000
 BRILLOUIN|   384           0.00195       -0.14062        0.48438        0.00000
 BRILLOUIN|   385           0.00195       -0.10938       -0.48438        0.00000
 BRILLOUIN|   386           0.00195       -0.10938       -0.45312        0.00000
 BRILLOUIN|   387           0.00195       -0.10938       -0.42188        0.00000
 BRILLOUIN|   388           0.00195       -0.10938       -0.39062        0.00000
 BRILLOUIN|   389           0.00195       -0.10938       -0.35938        0.00000
 BRILLOUIN|   390           0.00195       -0.10938       -0.32812        0.00000
 BRILLOUIN|   391           0.00195       -0.10938       -0.29688        0.00000
 BRILLOUIN|   392           0.00195       -0.10938       -0.26562        0.00000
 BRILLOUIN|   393           0.00195       -0.10938       -0.23438        0.00000
 BRILLOUIN|   394           0.00195       -0.10938       -0.20312        0.00000
 BRILLOUIN|   395           0.00195       -0.10938       -0.17188        0.00000
 BRILLOUIN|   396           0.00195       -0.10938       -0.14062        0.00000
 BRILLOUIN|   397           0.00195       -0.10938       -0.10938        0.00000
 BRILLOUIN|   398           0.00195       -0.10938       -0.07812        0.00000
 BRILLOUIN|   399           0.00195       -0.10938       -0.04688        0.00000
 BRILLOUIN|   400           0.00195       -0.10938       -0.01562        0.00000
 BRILLOUIN|   401           0.00195       -0.10938        0.01562        0.00000
 BRILLOUIN|   402           0.00195       -0.10938        0.04688        0.00000
 BRILLOUIN|   403           0.00195       -0.10938        0.07812        0.00000
 BRILLOUIN|   404           0.00195       -0.10938        0.10938        0.00000
 BRILLOUIN|   405           0.00195       -0.10938        0.14062        0.00000
 BRILLOUIN|   406           0.00195       -0.10938        0.17188        0.00000
 BRILLOUIN|   407           0.00195       -0.10938        0.20312        0.00000
 BRILLOUIN|   408           0.00195       -0.10938        0.23438        0.00000
 BRILLOUIN|   409           0.00195       -0.10938        0.26562        0.00000
 BRILLOUIN|   410           0.00195       -0.10938        0.29688        0.00000
 BRILLOUIN|   411           0.00195       -0.10938        0.32812        0.00000
 BRILLOUIN|   412           0.00195       -0.10938        0.35938        0.00000
 BRILLOUIN|   413           0.00195       -0.10938        0.39062        0.00000
 BRILLOUIN|   414           0.00195       -0.10938        0.42188        0.00000
 BRILLOUIN|   415           0.00195       -0.10938        0.45312        0.00000
 BRILLOUIN|   416           0.00195       -0.10938        0.48438        0.00000
 BRILLOUIN|   417           0.00195       -0.07812       -0.48438        0.00000
 BRILLOUIN|   418           0.00195       -0.07812       -0.45312        0.00000
 BRILLOUIN|   419           0.00195       -0.07812       -0.42188        0.00000
 BRILLOUIN|   420           0.00195       -0.07812       -0.39062        0.00000
 BRILLOUIN|   421           0.00195       -0.07812       -0.35938        0.00000
 BRILLOUIN|   422           0.00195       -0.07812       -0.32812        0.00000
 BRILLOUIN|   423           0.00195       -0.07812       -0.29688        0.00000
 BRILLOUIN|   424           0.00195       -0.07812       -0.26562        0.00000
 BRILLOUIN|   425           0.00195       -0.07812       -0.23438        0.00000
 BRILLOUIN|   426           0.00195       -0.07812       -0.20312        0.00000
 BRILLOUIN|   427           0.00195       -0.07812       -0.17188        0.00000
 BRILLOUIN|   428           0.00195       -0.07812       -0.14062        0.00000
 BRILLOUIN|   429           0.00195       -0.07812       -0.10938        0.00000
 BRILLOUIN|   430           0.00195       -0.07812       -0.07812        0.00000
 BRILLOUIN|   431           0.00195       -0.07812       -0.04688        0.00000
 BRILLOUIN|   432           0.00195       -0.07812       -0.01562        0.00000
 BRILLOUIN|   433           0.00195       -0.07812        0.01562        0.00000
 BRILLOUIN|   434           0.00195       -0.07812        0.04688        0.00000
 BRILLOUIN|   435           0.00195       -0.07812        0.07812        0.00000
 BRILLOUIN|   436           0.00195       -0.07812        0.10938        0.00000
 BRILLOUIN|   437           0.00195       -0.07812        0.14062        0.00000
 BRILLOUIN|   438           0.00195       -0.07812        0.17188        0.00000
 BRILLOUIN|   439           0.00195       -0.07812        0.20312        0.00000
 BRILLOUIN|   440           0.00195       -0.07812        0.23438        0.00000
 BRILLOUIN|   441           0.00195       -0.07812        0.26562        0.00000
 BRILLOUIN|   442           0.00195       -0.07812        0.29688        0.00000
 BRILLOUIN|   443           0.00195       -0.07812        0.32812        0.00000
 BRILLOUIN|   444           0.00195       -0.07812        0.35938        0.00000
 BRILLOUIN|   445           0.00195       -0.07812        0.39062        0.00000
 BRILLOUIN|   446           0.00195       -0.07812        0.42188        0.00000
 BRILLOUIN|   447           0.00195       -0.07812        0.45312        0.00000
 BRILLOUIN|   448           0.00195       -0.07812        0.48438        0.00000
 BRILLOUIN|   449           0.00195       -0.04688       -0.48438        0.00000
 BRILLOUIN|   450           0.00195       -0.04688       -0.45312        0.00000
 BRILLOUIN|   451           0.00195       -0.04688       -0.42188        0.00000
 BRILLOUIN|   452           0.00195       -0.04688       -0.39062        0.00000
 BRILLOUIN|   453           0.00195       -0.04688       -0.35938        0.00000
 BRILLOUIN|   454           0.00195       -0.04688       -0.32812        0.00000
 BRILLOUIN|   455           0.00195       -0.04688       -0.29688        0.00000
 BRILLOUIN|   456           0.00195       -0.04688       -0.26562        0.00000
 BRILLOUIN|   457           0.00195       -0.04688       -0.23438        0.00000
 BRILLOUIN|   458           0.00195       -0.04688       -0.20312        0.00000
 BRILLOUIN|   459           0.00195       -0.04688       -0.17188        0.00000
 BRILLOUIN|   460           0.00195       -0.04688       -0.14062        0.00000
 BRILLOUIN|   461           0.00195       -0.04688       -0.10938        0.00000
 BRILLOUIN|   462           0.00195       -0.04688       -0.07812        0.00000
 BRILLOUIN|   463           0.00195       -0.04688       -0.04688        0.00000
 BRILLOUIN|   464           0.00195       -0.04688       -0.01562        0.00000
 BRILLOUIN|   465           0.00195       -0.04688        0.01562        0.00000
 BRILLOUIN|   466           0.00195       -0.04688        0.04688        0.00000
 BRILLOUIN|   467           0.00195       -0.04688        0.07812        0.00000
 BRILLOUIN|   468           0.00195       -0.04688        0.10938        0.00000
 BRILLOUIN|   469           0.00195       -0.04688        0.14062        0.00000
 BRILLOUIN|   470           0.00195       -0.04688        0.17188        0.00000
 BRILLOUIN|   471           0.00195       -0.04688        0.20312        0.00000
 BRILLOUIN|   472           0.00195       -0.04688        0.23438        0.00000
 BRILLOUIN|   473           0.00195       -0.04688        0.26562        0.00000
 BRILLOUIN|   474           0.00195       -0.04688        0.29688        0.00000
 BRILLOUIN|   475           0.00195       -0.04688        0.32812        0.00000
 BRILLOUIN|   476           0.00195       -0.04688        0.35938        0.00000
 BRILLOUIN|   477           0.00195       -0.04688        0.39062        0.00000
 BRILLOUIN|   478           0.00195       -0.04688        0.42188        0.00000
 BRILLOUIN|   479           0.00195       -0.04688        0.45312        0.00000
 BRILLOUIN|   480           0.00195       -0.04688        0.48438        0.00000
 BRILLOUIN|   481           0.00195       -0.01562       -0.48438        0.00000
 BRILLOUIN|   482           0.00195       -0.01562       -0.45312        0.00000
 BRILLOUIN|   483           0.00195       -0.01562       -0.42188        0.00000
 BRILLOUIN|   484           0.00195       -0.01562       -0.39062        0.00000
 BRILLOUIN|   485           0.00195       -0.01562       -0.35938        0.00000
 BRILLOUIN|   486           0.00195       -0.01562       -0.32812        0.00000
 BRILLOUIN|   487           0.00195       -0.01562       -0.29688        0.00000
 BRILLOUIN|   488           0.00195       -0.01562       -0.26562        0.00000
 BRILLOUIN|   489           0.00195       -0.01562       -0.23438        0.00000
 BRILLOUIN|   490           0.00195       -0.01562       -0.20312        0.00000
 BRILLOUIN|   491           0.00195       -0.01562       -0.17188        0.00000
 BRILLOUIN|   492           0.00195       -0.01562       -0.14062        0.00000
 BRILLOUIN|   493           0.00195       -0.01562       -0.10938        0.00000
 BRILLOUIN|   494           0.00195       -0.01562       -0.07812        0.00000
 BRILLOUIN|   495           0.00195       -0.01562       -0.04688        0.00000
 BRILLOUIN|   496           0.00195       -0.01562       -0.01562        0.00000
 BRILLOUIN|   497           0.00195       -0.01562        0.01562        0.00000
 BRILLOUIN|   498           0.00195       -0.01562        0.04688        0.00000
 BRILLOUIN|   499           0.00195       -0.01562        0.07812        0.00000
 BRILLOUIN|   500           0.00195       -0.01562        0.10938        0.00000
 BRILLOUIN|   501           0.00195       -0.01562        0.14062        0.00000
 BRILLOUIN|   502           0.00195       -0.01562        0.17188        0.00000
 BRILLOUIN|   503           0.00195       -0.01562        0.20312        0.00000
 BRILLOUIN|   504           0.00195       -0.01562        0.23438        0.00000
 BRILLOUIN|   505           0.00195       -0.01562        0.26562        0.00000
 BRILLOUIN|   506           0.00195       -0.01562        0.29688        0.00000
 BRILLOUIN|   507           0.00195       -0.01562        0.32812        0.00000
 BRILLOUIN|   508           0.00195       -0.01562        0.35938        0.00000
 BRILLOUIN|   509           0.00195       -0.01562        0.39062        0.00000
 BRILLOUIN|   510           0.00195       -0.01562        0.42188        0.00000
 BRILLOUIN|   511           0.00195       -0.01562        0.45312        0.00000
 BRILLOUIN|   512           0.00195       -0.01562        0.48438        0.00000
 *******************************************************************************

 *******************************************************************************
 *******************************************************************************
 **                                                                           **
 **     #####                         ##              ##                      **
 **    ##   ##            ##          ##              ##                      **
 **   ##     ##                       ##            ######                    **
 **   ##     ##  ##   ##  ##   #####  ##  ##   ####   ##    #####    #####    **
 **   ##     ##  ##   ##  ##  ##      ## ##   ##      ##   ##   ##  ##   ##   **
 **   ##  ## ##  ##   ##  ##  ##      ####     ###    ##   ######   ######    **
 **    ##  ###   ##   ##  ##  ##      ## ##      ##   ##   ##       ##        **
 **     #######   #####   ##   #####  ##  ##  ####    ##    #####   ##        **
 **           ##                                                    ##        **
 **                                                                           **
 **                                                ... make the atoms dance   **
 **                                                                           **
 **            Copyright (C) by CP2K developers group (2000-2024)             **
 **                      J. Chem. Phys. 152, 194103 (2020)                    **
 **                                                                           **
 *******************************************************************************

 DFT| Spin restricted Kohn-Sham (RKS) calculation                            RKS
 DFT| Multiplicity                                                             1
 DFT| Number of spin states                                                    1
 DFT| Charge                                                                   0
 DFT| Self-interaction correction (SIC)                                       NO
 DFT| Cutoffs: density                                              1.000000E-10
 DFT|          gradient                                             1.000000E-10
 DFT|          tau                                                  1.000000E-10
 DFT|          cutoff_smoothing_range                               0.000000E+00
 DFT| XC density smoothing                                                  NONE
 DFT| XC derivatives                                                          PW

 FUNCTIONAL| PBE:
 FUNCTIONAL| J.P.Perdew, K.Burke, M.Ernzerhof, Phys. Rev. Letter, vol. 77, n 18,
 FUNCTIONAL|  pp. 3865-3868, (1996) {spin unpolarized}                          


 QS| Method:                                                                GAPW
 QS| Density plane wave grid type                        NON-SPHERICAL FULLSPACE
 QS| Number of grid levels:                                                    4
 QS| Density cutoff [a.u.]:                                                250.0
 QS| Multi grid cutoff [a.u.]: 1) grid level                               250.0
 QS|                           2) grid level                                83.3
 QS|                           3) grid level                                27.8
 QS|                           4) grid level                                 9.3
 QS| Grid level progression factor:                                          3.0
 QS| Relative density cutoff [a.u.]:                                        50.0
 QS| Interaction thresholds: eps_pgf_orb:                                1.0E-12
 QS|                         eps_filter_matrix:                          0.0E+00
 QS|                         eps_core_charge:                            1.0E-14
 QS|                         eps_rho_gspace:                             1.0E-12
 QS|                         eps_rho_rspace:                             1.0E-12
 QS|                         eps_gvg_rspace:                             1.0E-06
 QS|                         eps_ppl:                                    1.0E-02
 QS|                         eps_ppnl:                                   1.0E-08
 QS| GAPW|      One center basis from orbital basis primitives
 QS| GAPW|                   eps_fit:                                    1.0E-04
 QS| GAPW|                   eps_iso:                                    1.0E-12
 QS| GAPW|                   eps_svd:                                    1.0E-08
 QS| GAPW|                   eps_cpc:                                    1.0E-12
 QS| GAPW|   atom-r-grid: quadrature:                                     GC_LOG
 QS| GAPW|      atom-s-grid:  max l :                                          6
 QS| GAPW|      max_l_rho0 :                                                   2
 QS| GAPW|      At least one kind is NOT PAW, i.e. it has only soft AO 
 QS| GAPW|      The NOT PAW atoms are treated fully GPW


 ATOMIC KIND INFORMATION

  1. Atomic kind: W                                     Number of atoms:       1

     Orbital Basis Set                                        aug-SZV-MOLOPT-GTH

       Number of orbital shell sets:                                           1
       Number of orbital shells:                                               8
       Number of primitive Cartesian functions:                                7
       Number of Cartesian basis functions:                                   31
       Number of spherical basis functions:                                   26
       Norm type:                                                              2

       Normalised Cartesian orbitals:

                        Set   Shell   Orbital            Exponent    Coefficient

                          1       1    2s                0.074663      -0.014288
                                                         0.110000       0.000000
                                                         0.214447      -0.013622
                                                         0.501100      -0.158409
                                                         1.106151      -0.674409
                                                         2.893835       0.343543
                                                         3.103254       0.529378

                          1       2    3s                0.074663       0.097561
                                                         0.110000       0.000000
                                                         0.214447       0.068378
                                                         0.501100      -0.211692
                                                         1.106151      -0.477566
                                                         2.893835       0.569553
                                                         3.103254      -0.097470

                          1       3    4s                0.074663      -0.061328
                                                         0.110000      -0.011338
                                                         0.214447       0.030747
                                                         0.501100       0.554942
                                                         1.106151      -0.141697
                                                         2.893835       0.000000
                                                         3.103254       0.000000

                          1       4    3px               0.074663       0.000342
                                                         0.110000       0.000000
                                                         0.214447      -0.010443
                                                         0.501100      -0.267353
                                                         1.106151      -0.965855
                                                         2.893835      -5.556400
                                                         3.103254       6.695542
                          1       4    3py               0.074663       0.000342
                                                         0.110000       0.000000
                                                         0.214447      -0.010443
                                                         0.501100      -0.267353
                                                         1.106151      -0.965855
                                                         2.893835      -5.556400
                                                         3.103254       6.695542
                          1       4    3pz               0.074663       0.000342
                                                         0.110000       0.000000
                                                         0.214447      -0.010443
                                                         0.501100      -0.267353
                                                         1.106151      -0.965855
                                                         2.893835      -5.556400
                                                         3.103254       6.695542

                          1       5    4px               0.074663      -0.002663
                                                         0.110000      -0.015460
                                                         0.214447      -0.004961
                                                         0.501100       0.676066
                                                         1.106151      -0.037603
                                                         2.893835       0.000000
                                                         3.103254       0.000000
                          1       5    4py               0.074663      -0.002663
                                                         0.110000      -0.015460
                                                         0.214447      -0.004961
                                                         0.501100       0.676066
                                                         1.106151      -0.037603
                                                         2.893835       0.000000
                                                         3.103254       0.000000
                          1       5    4pz               0.074663      -0.002663
                                                         0.110000      -0.015460
                                                         0.214447      -0.004961
                                                         0.501100       0.676066
                                                         1.106151      -0.037603
                                                         2.893835       0.000000
                                                         3.103254       0.000000

                          1       6    4dx2              0.074663       0.002139
                                                         0.110000       0.000000
                                                         0.214447       0.042391
                                                         0.501100       0.198591
                                                         1.106151       0.570194
                                                         2.893835       1.052045
                                                         3.103254      -0.912711
                          1       6    4dxy              0.074663       0.003705
                                                         0.110000       0.000000
                                                         0.214447       0.073424
                                                         0.501100       0.343970
                                                         1.106151       0.987605
                                                         2.893835       1.822195
                                                         3.103254      -1.580861
                          1       6    4dxz              0.074663       0.003705
                                                         0.110000       0.000000
                                                         0.214447       0.073424
                                                         0.501100       0.343970
                                                         1.106151       0.987605
                                                         2.893835       1.822195
                                                         3.103254      -1.580861
                          1       6    4dy2              0.074663       0.002139
                                                         0.110000       0.000000
                                                         0.214447       0.042391
                                                         0.501100       0.198591
                                                         1.106151       0.570194
                                                         2.893835       1.052045
                                                         3.103254      -0.912711
                          1       6    4dyz              0.074663       0.003705
                                                         0.110000       0.000000
                                                         0.214447       0.073424
                                                         0.501100       0.343970
                                                         1.106151       0.987605
                                                         2.893835       1.822195
                                                         3.103254      -1.580861
                          1       6    4dz2              0.074663       0.002139
                                                         0.110000       0.000000
                                                         0.214447       0.042391
                                                         0.501100       0.198591
                                                         1.106151       0.570194
                                                         2.893835       1.052045
                                                         3.103254      -0.912711

                          1       7    5dx2              0.074663       0.001433
                                                         0.110000      -0.000774
                                                         0.214447       0.066754
                                                         0.501100       0.219814
                                                         1.106151      -0.016330
                                                         2.893835       0.000000
                                                         3.103254       0.000000
                          1       7    5dxy              0.074663       0.002481
                                                         0.110000      -0.001341
                                                         0.214447       0.115622
                                                         0.501100       0.380729
                                                         1.106151      -0.028285
                                                         2.893835       0.000000
                                                         3.103254       0.000000
                          1       7    5dxz              0.074663       0.002481
                                                         0.110000      -0.001341
                                                         0.214447       0.115622
                                                         0.501100       0.380729
                                                         1.106151      -0.028285
                                                         2.893835       0.000000
                                                         3.103254       0.000000
                          1       7    5dy2              0.074663       0.001433
                                                         0.110000      -0.000774
                                                         0.214447       0.066754
                                                         0.501100       0.219814
                                                         1.106151      -0.016330
                                                         2.893835       0.000000
                                                         3.103254       0.000000
                          1       7    5dyz              0.074663       0.002481
                                                         0.110000      -0.001341
                                                         0.214447       0.115622
                                                         0.501100       0.380729
                                                         1.106151      -0.028285
                                                         2.893835       0.000000
                                                         3.103254       0.000000
                          1       7    5dz2              0.074663       0.001433
                                                         0.110000      -0.000774
                                                         0.214447       0.066754
                                                         0.501100       0.219814
                                                         1.106151      -0.016330
                                                         2.893835       0.000000
                                                         3.103254       0.000000

                          1       8    5fx3              0.074663      -0.000315
                                                         0.110000       0.000975
                                                         0.214447       0.006074
                                                         0.501100       0.137068
                                                         1.106151       1.012089
                                                         2.893835       0.000000
                                                         3.103254       0.000000
                          1       8    5fx2y             0.074663      -0.000705
                                                         0.110000       0.002180
                                                         0.214447       0.013582
                                                         0.501100       0.306494
                                                         1.106151       2.263100
                                                         2.893835       0.000000
                                                         3.103254       0.000000
                          1       8    5fx2z             0.074663      -0.000705
                                                         0.110000       0.002180
                                                         0.214447       0.013582
                                                         0.501100       0.306494
                                                         1.106151       2.263100
                                                         2.893835       0.000000
                                                         3.103254       0.000000
                          1       8    5fxy2             0.074663      -0.000705
                                                         0.110000       0.002180
                                                         0.214447       0.013582
                                                         0.501100       0.306494
                                                         1.106151       2.263100
                                                         2.893835       0.000000
                                                         3.103254       0.000000
                          1       8    5fxyz             0.074663      -0.001220
                                                         0.110000       0.003775
                                                         0.214447       0.023524
                                                         0.501100       0.530864
                                                         1.106151       3.919803
                                                         2.893835       0.000000
                                                         3.103254       0.000000
                          1       8    5fxz2             0.074663      -0.000705
                                                         0.110000       0.002180
                                                         0.214447       0.013582
                                                         0.501100       0.306494
                                                         1.106151       2.263100
                                                         2.893835       0.000000
                                                         3.103254       0.000000
                          1       8    5fy3              0.074663      -0.000315
                                                         0.110000       0.000975
                                                         0.214447       0.006074
                                                         0.501100       0.137068
                                                         1.106151       1.012089
                                                         2.893835       0.000000
                                                         3.103254       0.000000
                          1       8    5fy2z             0.074663      -0.000705
                                                         0.110000       0.002180
                                                         0.214447       0.013582
                                                         0.501100       0.306494
                                                         1.106151       2.263100
                                                         2.893835       0.000000
                                                         3.103254       0.000000
                          1       8    5fyz2             0.074663      -0.000705
                                                         0.110000       0.002180
                                                         0.214447       0.013582
                                                         0.501100       0.306494
                                                         1.106151       2.263100
                                                         2.893835       0.000000
                                                         3.103254       0.000000
                          1       8    5fz3              0.074663      -0.000315
                                                         0.110000       0.000975
                                                         0.214447       0.006074
                                                         0.501100       0.137068
                                                         1.106151       1.012089
                                                         2.893835       0.000000
                                                         3.103254       0.000000

     RI Auxiliary Basis Set             RI_aug-SZV-MOLOPT-GTH_N_RI_030_s_p_d_f_g

       Number of orbital shell sets:                                           8
       Number of orbital shells:                                               8
       Number of primitive Cartesian functions:                                8
       Number of Cartesian basis functions:                                   40
       Number of spherical basis functions:                                   30
       Norm type:                                                              2

       Normalised Cartesian orbitals:

                        Set   Shell   Orbital            Exponent    Coefficient

                          1       1    1s                0.116900       0.142485

                          2       1    4px               0.444594       0.517481
                          2       1    4py               0.444594       0.517481
                          2       1    4pz               0.444594       0.517481

                          3       1    8gx4              0.805769       0.614489
                          3       1    8gx3y             0.805769       1.625786
                          3       1    8gx3z             0.805769       1.625786
                          3       1    8gx2y2            0.805769       2.098880
                          3       1    8gx2yz            0.805769       3.635367
                          3       1    8gx2z2            0.805769       2.098880
                          3       1    8gxy3             0.805769       1.625786
                          3       1    8gxy2z            0.805769       3.635367
                          3       1    8gxyz2            0.805769       3.635367
                          3       1    8gxz3             0.805769       1.625786
                          3       1    8gy4              0.805769       0.614489
                          3       1    8gy3z             0.805769       1.625786
                          3       1    8gy2z2            0.805769       2.098880
                          3       1    8gyz3             0.805769       1.625786
                          3       1    8gz4              0.805769       0.614489

                          4       1    5px               1.397958       2.166744
                          4       1    5py               1.397958       2.166744
                          4       1    5pz               1.397958       2.166744

                          5       1    2s                1.523223       0.977198

                          6       1    7fx3              1.749917       5.184942
                          6       1    7fx2y             1.749917      11.593882
                          6       1    7fx2z             1.749917      11.593882
                          6       1    7fxy2             1.749917      11.593882
                          6       1    7fxyz             1.749917      20.081193
                          6       1    7fxz2             1.749917      11.593882
                          6       1    7fy3              1.749917       5.184942
                          6       1    7fy2z             1.749917      11.593882
                          6       1    7fyz2             1.749917      11.593882
                          6       1    7fz3              1.749917       5.184942

                          7       1    6dx2              1.837297       4.772251
                          7       1    6dxy              1.837297       8.265780
                          7       1    6dxz              1.837297       8.265780
                          7       1    6dy2              1.837297       4.772251
                          7       1    6dyz              1.837297       8.265780
                          7       1    6dz2              1.837297       4.772251

[...]
 https://doi.org/10.1103/PhysRevB.54.1703

 J. P. Perdew, K. Burke, M. Ernzerhof.
 Phys. Rev. Lett. 77, 3865-3868 (1996).
 Generalized gradient approximation made simple.
 https://doi.org/10.1103/PhysRevLett.77.3865


 -------------------------------------------------------------------------------
 -                                                                             -
 -                                T I M I N G                                  -
 -                                                                             -
 -------------------------------------------------------------------------------
 SUBROUTINE                       CALLS  ASD         SELF TIME        TOTAL TIME
                                MAXIMUM       AVERAGE  MAXIMUM  AVERAGE  MAXIMUM
 CP2K                                 1  1.0     0.01     0.02 15059.78 15059.78
 qs_energies                          1  2.0     0.00     0.00 15058.40 15058.45
 qs_energies_properties               1  3.0     0.00     0.00 14572.73 14572.79
 post_scf_bandstructure               1  4.0     0.00     0.00 14572.73 14572.79
 gw                                   1  5.0     0.00     0.00 14484.54 14484.55
 gw_calc_small_cell_full_kp           1  6.0     0.00     0.01 14317.56 14317.57
 dbt_total                      *******  9.9    62.43    70.21  8265.09  8622.94
 dbt_contract                   ******* 10.7    94.60   100.62  6721.49  7076.09
 dbt_tas_multiply               4690676 12.9     9.03     9.68  6239.97  6562.09
 dbt_tas_total                  4690676 13.9   504.71   543.16  6234.23  6555.98
 compute_Sigma_c                      1  7.0     0.00     0.01  5573.77  5573.79
 compute_chi                          1  7.0     0.13     0.15  4548.82  4548.86
 compute_W_real_space                 1  7.0     4.80     4.89  3917.08  3917.11
 contract_to_Sigma                  549  8.0    97.57   107.62  3350.58  3521.17
 compute_Minv_and_Vsqrt               1  8.0     0.05     0.06  3510.81  3510.93
 build_2c_coulomb_matrix_kp_sma       2  9.0     5.88     6.97  3504.07  3504.09
 build_2c_coulomb_matrix_kp_sma  655360 10.0  2836.61  2963.94  2836.61  2963.94
 contract_M_occ_vir_to_chi          270  8.0   164.89   188.59  1954.20  2435.72
 dbt_tas_estimate_result_nze    2345338 13.4   390.92   404.45  2292.78  2407.27
 contract_to_Sigma_3c_x_G       4878292  9.0    11.64    12.12  2021.30  2151.56
 dbt_tas_dbm                    4690676 14.9     8.60     9.42  1990.65  2119.89
 dbm_multiply                   4690676 16.9  1971.34  2100.09  1971.34  2100.09
 G_times_3c                       25560  8.0    19.68    20.32  1836.78  1946.72
 contract_W                         279  8.0    15.86    16.26  1657.40  1835.27
 dbt_copy                       ******* 11.1    63.32    70.51  1604.08  1803.13
 mp_sync                        ******* 11.7  1084.89  1407.10  1084.89  1407.10
 contract_to_Sigma_contract       25986  9.0    23.18    24.69  1210.15  1297.34
 dbt_reshape                    7654353 12.0   775.59   892.10  1070.94  1225.61
 reshape_mm_small               4690676 14.9   457.01   473.71   977.27  1029.77
 dbt_tas_mm_2                   1703904 16.0     3.89     4.56   875.16  1027.26
 get_t_3c_int                   7431972  9.6    61.17    72.28   877.14   971.19
 dbt_tas_mm_3T                  1902158 16.2     2.44     2.79   661.58   733.51
 dbt_tas_reshape                5275078 15.5    59.41    64.31   542.60   598.44
 dbt_tas_create_split           ******* 16.0    17.08    18.14   491.16   556.20
 dbt_tas_create_split_rows_or_c ******* 17.0    66.14    70.62   474.08   538.22
 dbcsr_complete_redistribute     485968  9.6    15.56    23.26   474.62   510.32
 reshape_mm_compatible          4690676 14.9    88.87    93.21   466.62   508.59
 convert_to_new_pgrid           ******* 14.9   122.44   128.19   469.87   490.17
 scf_env_do_scf                       1  3.0     0.00     0.00   485.31   485.31
 scf_env_do_scf_inner_loop           67  4.0     0.01     0.01   485.31   485.31
 dbt_tas_mm_1N                  1260992 15.5     1.55     1.70   443.58   482.47
 qs_scf_new_mos_kp                   67  5.0     0.00     0.00   457.16   457.24
 do_general_diag_kp                  67  6.0     0.71     0.83   457.16   457.24
 copy_dbcsr_to_fm                271137  8.1     2.75     3.09   442.37   444.92
 G_occ_vir                          121  8.0     0.52     0.64   433.86   435.27
 dbt_tas_replicate              4690676 14.9   193.52   206.31   368.27   394.09
 dbt_tas_distribution_new       ******* 15.7   180.65   203.25   343.49   388.38
 dbt_tas_reserve_blocks_index   ******* 15.6    51.95    54.43   319.99   362.21
 dbm_copy                       9381352 15.9   347.42   361.98   347.42   361.98
 dbm_reserve_blocks             ******* 16.5   297.19   350.21   297.19   350.21
 mp_sum_dm                       655426 10.0   346.91   349.96   346.91   349.96
 change_split                   6461521 15.4    30.15    31.63   306.35   341.09
 fm_to_local_tensor              146072  9.0     2.72     3.08   321.24   321.28
 dbcsr_desymmetrize_deep         421241  8.4     6.63     8.23   309.26   314.37
 mp_cart_create                 ******* 16.7   243.25   277.84   264.51   302.19
 dbt_tas_copy                   5122332 12.6   144.43   175.46   225.17   273.58
 copy_fm_to_dbcsr                214831  9.4     0.95     1.10   230.66   265.39
 dbt_remap                       309563 11.0    46.40    53.39   231.97   251.30
 mp_alltoall_d11v               2721627 10.5   232.21   234.28   232.21   234.28
 dbt_copy_nocomm                1546080 11.0   123.77   167.46   171.69   230.58
 mp_alltoall_i22                 907209 10.0   187.15   222.29   187.15   222.29
 dbt_reserve_blocks_index_array 9143004 13.0    10.94    12.90   187.12   221.84
 dbt_tas_reshape_buffer_fill    5275078 16.5   199.01   221.07   199.01   221.07
 mp_alltoall_i11v               1879145 10.3   215.52   215.75   215.52   215.75
 dbt_reserve_blocks_index       9308976 14.0    16.45    19.40   181.09   214.00
 dbt_tas_create_new             ******* 15.3   203.22   212.86   203.22   212.86
 dbt_tas_reshape_buffer_obtain  5275078 16.5   129.71   144.21   185.66   206.92
 add_V_L                         327680 10.0     7.69   185.80     7.69   185.80
 local_dbt_to_global_fm              91  8.0     0.30     0.32   180.96   180.97
 add_ikp_to_rs                  *******  9.9   130.62   176.58   130.62   176.58
 dbm_filter                     6938583 14.9   155.14   167.76   155.14   167.76
 create_and_init_bs_env_for_gw        1  6.0     0.00     0.00   166.98   167.01
 compute_Sigma_x                      1  7.0     0.00     0.00   165.39   165.42
 dbt_tas_reserve_blocks_templat 9706240 14.1    42.85    48.47   144.54   165.00
 fm_add_ikp_to_rs                123904  9.0    77.99    79.38   116.57   163.63
 add_rs_to_ikp                  *******  9.8   145.22   157.27   145.22   157.27
 dbt_permute_index              ******* 12.2   128.32   136.64   145.71   155.46
 mp_comm_dup                    ******* 18.5   124.65   143.66   134.03   154.87
 dbt_communicate_buffer         7654353 13.0   137.61   151.56   137.61   151.56
 global_matrix_to_local_matrix   146072 10.0     2.27     4.66   106.17   142.39
 compute_3c_integrals                 1  7.0     0.09     0.09   139.42   139.42
 build_3c_integrals                   1  8.0   128.20   132.80   132.51   137.12
 trafo_rs_to_ikp                  14346  8.1    10.04    10.30   125.02   129.03
 mp_comm_split_direct           ******* 18.0   105.72   119.64   112.49   127.58
 add_R                          *******  9.3    87.88    93.33   117.52   124.53
 cp_cfm_gemm                     271042 10.9   106.90   119.04   106.90   119.04
 parallel_gemm_cfm               267820  8.9     0.26     0.29   106.81   118.93
 parallel_gemm_cfm_gemm          267820  9.9     0.26     0.30   106.55   118.67
 mp_waitall_1                   1448189 11.1    85.07   117.22    85.07   117.22
 compute_QP_energies                  1  7.0     0.06     0.08   112.49   112.53
 trafo_to_k_and_nn                65514  8.0     0.47     0.52   112.27   112.31
 hybrid_alltoall_any             421241  9.4     1.88     2.07   108.94   109.65
 send_data                       146072 11.0     0.17     0.22    75.42   105.33
 communicate_buffer              146072 12.0     2.03    19.01    75.24   105.17
 mp_comm_free                   ******* 15.7    94.16   104.31    94.16   104.31
 add_ikp_to_all_rs                13151  8.0     8.93     9.12   101.01   103.97
 dbm_add                        4690676 14.9    92.53   103.39    92.53   103.39
 dbt_tas_merge                  1703904 15.0    67.14    77.66    87.44   101.98
 dbt_align_index                7036014 11.4    16.25    17.17    97.36   100.39
 kpoint_density_transform            67  7.0     0.21     0.28    88.25    88.31
 fm_to_local_array                  934  8.1    15.64    16.94    84.56    84.98
 fm_trafo_rs_to_ikp               65514  9.0    43.25    44.57    73.48    84.16
 dbt_tas_mp_comm                2637539 13.2     9.40    10.15    66.07    77.08
 mp_sum_dm3                        1062  9.0    69.97    71.86    69.97    71.86
 fm_MWM_R_t_to_local_tensor_W_R      30  8.0     0.04     0.05    68.91    68.91
 mult_W_with_Minv                    30  8.0     0.32     0.34    63.87    64.17
 dbt_reserve_blocks_template    1546080 12.0     6.39     8.70    47.92    63.13
 reshape_mm_template             619126 15.5    33.04    35.78    57.06    61.82
 get_V_tr_R                          34  9.0     0.13     0.14    59.52    59.68
 dbt_distribution_new_expert     911280 12.2    10.39    11.26    52.03    57.43
 dbt_destroy                    ******* 11.2    51.32    53.52    54.68    57.03
 rskp_transform                   75052  7.1     1.02    54.86     1.02    54.86
 is_cell_in_index_to_cell       *******  9.8    50.75    53.48    50.75    53.48
 dbcsr_finalize                 1883435 11.0     8.56    11.38    39.89    52.86
 cp_cfm_heevd                      5368  7.6    52.52    52.69    52.52    52.69
 mp_cart_sub                     542353 10.1    50.75    50.93    50.75    50.93
 dbt_tas_communicate_buffer     9960280 17.2    45.71    50.52    45.71    50.52
 dbt_tas_reshape_communicate_bu 5275078 16.5     7.01     7.70    44.66    49.58
 mp_cart_get                    ******* 16.0    46.66    49.49    46.66    49.49
 dbm_scale                      ******* 13.0    35.28    45.69    35.28    45.69
 mp_comm_size                   ******* 16.2    37.06    43.16    37.06    43.16
 dbt_tas_reshape_get_coord      5275078 16.5    40.48    42.96    40.48    42.96
 local_dbt_to_global_mat          87451  9.0     0.82     0.94    29.81    41.82
 get_data                        146072 11.0     4.79    40.73     5.18    41.22
 dos_pdos_ldos                        1  5.0     0.01     0.01    40.55    40.60
 power                            27242  8.0    39.44    40.31    39.44    40.31
 SOC_ev                            2148  6.0     0.03     0.03    38.30    38.34
 dbt_create_template            2617041  9.0    35.51    37.12    35.51    37.12
 mp_isend_dv                    ******* 11.6     1.31    37.12     1.31    37.12
 dbt_create_3c_R1_R2                 62  8.0     4.07     4.23    35.59    37.07
 local_matrix_to_global_matrix    87451 10.0     0.35     0.37    23.18    35.77
 dbt_create_new                  455640 11.7     7.02     7.87    32.38    35.15
 rsmat_to_kp                       6444  7.2     0.10     0.12    33.73    34.16
 cp_fm_start_copy_general        205824  7.3     2.00     3.70    32.45    32.88
 dbcsr_filter_anytype            656664 11.0     3.75     4.16    21.39    30.51
 mp_comm_rank                   ******* 16.2    28.69    30.48    28.69    30.48
 create_and_init_bs_env               1  5.0     0.00     0.00    29.94    29.94
 compute_cfm_mo_coeff_kp_and_ei       1  6.0     0.01     0.01    29.94    29.94
 dbt_create_matrix               146072 10.0     1.75     2.00    26.24    29.76
 mp_alltoall_i                  ******* 14.8    24.67    26.67    24.67    26.67
 destroy_t_2d                        62  8.0     4.94     5.87    24.62    25.79
 dbcsr_merge_all                 712114 11.8    14.33    19.61    19.87    25.59
 transform_dmat                   34304  8.0     0.43    24.29     0.43    24.29
 dbcsr_create_new               1585524  9.9    12.28    13.57    18.83    20.88
 mp_allgather_i                  411648  8.3    19.68    20.86    19.68    20.86
 cp_cfm_geeig_canon                1074  7.0     0.01     0.01    18.49    18.52
 mp_sum_l                       ******* 15.1    15.64    17.84    15.64    17.84
 soc                                  1  5.0     0.00     0.00    17.70    17.70
 H_KS_spinor_kp                       1  6.0     0.02     0.02    17.65    17.66
 set_blocks                       87451 11.0     1.36     5.16     7.18    16.80
 qs_ks_build_kohn_sham_matrix        70  7.0     0.02     0.03    14.96    15.04
 qs_ks_update_qs_env                 67  5.0     0.00     0.00    14.70    14.78
 rebuild_ks_matrix                   67  6.0     0.00     0.00    14.33    14.41
 dbt_pgrid_create_expert         911283 13.2     2.07     2.62    12.49    14.07
 transfer_pw2rs                     351 10.6     0.00     0.00    13.74    14.02
 transfer_pw2rs_250                 141 11.0     0.24     0.31    13.49    13.77
 sum_up_and_integrate                70  8.0     0.00     0.00     0.93    13.77
 integrate_v_rspace                  70  9.0     0.00     0.04     0.92    13.77
 integrate_vhg0_rspace               70  8.0     0.00     0.00    13.15    13.43
 grid_integrate_task_list            70 10.0     0.20    13.02     0.20    13.02
 transfer_rs2pw                     344  8.4     0.00     0.00    11.74    11.94
 qs_rho_update_rho_low               68  5.0     0.00     0.00    11.81    11.81
 calculate_rho_elec                  68  6.0     0.00     0.02    11.80    11.81
 transfer_rs2pw_250                 140 10.0     0.30     0.36    11.49    11.72
 density_rs2pw                       68  7.0     0.00     0.00    11.40    11.60
 mp_sendrecv_dv                   32680 10.4    11.38    11.59    11.38    11.59
 mp_isend_im2                   ******* 12.9     0.50    11.51     0.50    11.51
 grid_collocate_task_list            68  7.0     0.40    10.96     0.40    10.96
 dbt_tas_replicate_communicate_ 3160106 15.9     4.14     4.52    10.11    10.81
 dbt_tas_reshape_alltoall       5275078 16.5     5.83     6.32     9.43    10.67
 dbcsr_work_create              1133355 10.3     6.08     7.19     8.89    10.65
 mp_cart_rank                   ******* 15.9     9.17    10.47     9.17    10.47
 mp_sum_i                       4265318 15.9     9.59    10.34     9.59    10.34
 mp_max_i                       ******* 11.7     8.96    10.32     8.96    10.32
 copy_fm_to_dbcsr_bc             214831 10.4     2.50     2.71     9.24    10.24
 dbt_nd_mp_comm                  455635 11.7     1.53     1.70     9.25    10.18
 dbcsr_iterator_start           4058670 10.9     8.30     8.69     9.43     9.77
 setup_cells_3c                       1  7.0     0.29     0.29     8.95     8.95
 build_3c_integral_block          19467  8.0     5.95     6.85     8.01     8.66
 send_sizes_1                    146072 11.0     0.17     0.19     7.74     8.45
 dbcsr_work_destroy_all         1133355 11.2     5.09     6.06     7.19     8.44
 dbcsr_set                      1533707 10.5     1.42     1.57     7.55     8.37
 mp_bcast_iv                     823404  8.3     7.27     8.03     7.27     8.03
 comm_data                        87451 11.0     0.33     1.90     6.07     7.46
 reserve_blocks                  146072 11.0     0.73     0.83     6.52     7.39
 mp_bcast_i                     ******* 18.0     5.79     7.14     5.79     7.14
 dbt_copy_matrix_to_tensor       146072 10.0     2.59     2.78     6.71     7.11
 dbcsr_zero                     1533707 11.5     6.13     6.96     6.13     6.96
 get_Minv_Vtr_Minv_R                  1  8.0     0.01     0.01     6.90     6.92
 dbcsr_make_index_exist         1585524 10.9     6.02     6.72     6.02     6.72
 mp_waitall_2                    174902 12.0     5.45     6.62     5.45     6.62
 trafo_V_xc_R_to_kp                   1  7.0     0.01     0.01     6.56     6.58
 send_sizes_2                    146072 11.0     0.17     0.18     6.05     6.50
 dbcsr_data_release             ******* 11.8     5.48     6.37     5.48     6.37
 heuristic_RI_regularization          1  7.0     0.00     0.00     6.19     6.19
 dbcsr_iterator_stop            4058670 10.9     4.81     5.08     5.79     6.08
 dbt_distribution_destroy        911280 12.2     4.22     4.89     5.16     5.90
 mp_dims_create                 ******* 14.4     5.21     5.89     5.21     5.89
 dbcsr_data_new                 ******* 11.2     4.82     5.68     4.82     5.68
 dbt_tas_replicate_alltoall     3160106 15.9     3.32     3.65     5.03     5.60
 dbt_buffer_get_index           9960280 16.8     4.36     5.23     4.36     5.23
 dbt_tas_merge_communicate_buff 1703904 16.0     2.25     2.59     4.34     5.03
 mp_sum_dv                        72164  8.9     2.76     4.89     2.76     4.89
 dbcsr_reserve_blocks            583883 12.2     2.37     4.03     2.81     4.74
 dbt_tas_merge_alltoall         1703904 16.0     2.26     2.83     3.79     4.62
 dbcsr_destroy                  1476933  9.6     2.48     2.61     4.14     4.56
 comm_size                        87451 11.0     0.12     0.14     4.23     4.44
 build_2c_integrals                  34 10.0     0.11     2.00     0.27     4.11
 get_coord                        87451 11.0     0.89     0.94     2.99     4.05
 setup_parallelization_Delta_R        1  7.0     0.00     0.00     3.90     3.90
 compute_n_tensor_ops_Delta_R         1  8.0     1.12     1.84     3.90     3.90
 fill_buffer                      87451 11.0     2.13     3.66     2.36     3.89
 copy_dbcsr_to_fm_bc             271137  9.1     1.81     1.99     3.65     3.83
 mp_bcast_im                     411648  8.3     2.93     3.80     2.93     3.80
 quick_finalize                  421241 10.4     1.02     2.71     1.73     3.71
 dbt_reserve_blocks_matrix_to_t  146072 11.0     1.05     1.11     3.26     3.49
 tree_to_linear_d                548869 12.6     3.23     3.49     3.23     3.49
 alloc_block_3c                       1  9.0     0.26     0.33     3.37     3.45
 mp_sum_iv                         2172  9.0     1.70     3.11     1.70     3.11
 add_to_DOS_PDOS                   4296  6.5     3.00     3.05     3.00     3.05
 dbcsr_copy                      177350 10.2     0.93     1.09     1.93     2.96
 dbt_copy_tensor_to_matrix        87451 10.0     0.70     0.76     2.65     2.88
 dbcsr_reserve_all_blocks        302282 11.5     0.43     0.53     1.38     2.76
 fill_mat_local                  146072 11.0     1.93     2.02     2.29     2.39
 cp_cfm_geeig                      1072  7.0     0.01     0.01     1.90     2.07
 abc_contract_xsmm                23794  9.0     1.67     1.87     1.67     1.87
 cp_dbcsr_alloc_block_from_nbl    48078 10.0     0.15     1.23     0.21     1.65
 dbcsr_copy_into_existing         68759 10.0     0.40     1.22     0.79     1.62
 dbcsr_iterator_seek            4058670 11.9     1.13     1.56     1.13     1.56
 -------------------------------------------------------------------------------

 The number of warnings for this run is : 2
 
 -------------------------------------------------------------------------------
  **** **** ******  **  PROGRAM ENDED AT                 2024-12-11 20:30:52.562
 ***** ** ***  *** **   PROGRAM RAN ON                              f01r01c04s11
 **    ****   ******    PROGRAM RAN BY                                   di38fab
 ***** **    ** ** **   PROGRAM PROCESS ID                                731355
  **** **  *******  **  PROGRAM STOPPED IN /hppfs/scratch/04/di38fab/04_TMD/4_WS
                                           e2_
