 DBCSR| CPU Multiplication driver                                           XSMM (U)
 DBCSR| Multrec recursion limit                                              512 (U)
 DBCSR| Multiplication stack size                                           1000 (D)
 DBCSR| Maximum elements for images                                    UNLIMITED (U)
 DBCSR| Multiplicative factor virtual images                                   1 (U)
 DBCSR| Use multiplication densification                                       T (D)
 DBCSR| Multiplication size stacks                                             3 (U)
 DBCSR| Use memory pool for CPU allocation                                     F (U)
 DBCSR| Number of 3D layers                                               SINGLE (U)
 DBCSR| Use MPI memory allocation                                              F (U)
 DBCSR| Use RMA algorithm                                                      F (U)
 DBCSR| Use Communication thread                                               T (U)
 DBCSR| Communication thread load                                             60 (D)
 DBCSR| MPI: My process id                                                     0
 DBCSR| MPI: Number of processes                                             256
 DBCSR| OMP: Current number of threads                                         8
 DBCSR| OMP: Max number of threads                                             8
 DBCSR| Split modifier for TAS multiplication algorithm                  1.0E+00 (U)


  **** **** ******  **  PROGRAM STARTED AT               2025-07-10 15:37:38.743
 ***** ** ***  *** **   PROGRAM STARTED ON                              n2cn1065
 **    ****   ******    PROGRAM STARTED BY                              metdyn02
 ***** **    ** ** **   PROGRAM PROCESS ID                               2358852
  **** **  *******  **  PROGRAM STARTED IN /scratch/hpc-prf-metdyn/metdyn02_Remi
                                           /05_TMD_new/3_WS2__/SZVnonaug

 CP2K| version string:                 CP2K version 2025.1 (Development Version)
 CP2K| source code revision number:                                  git:400017f
 CP2K| cp2kflags: omp libint fftw3 libxc libgrpp elpa parallel scalapack mpi_f08
 CP2K|             cosma xsmm plumed2 spglib libvori libbqb libvdwxc hdf5
 CP2K| is freely available from                            https://www.cp2k.org/
 CP2K| Program compiled at                         Thu Jun 26 12:02:16 CEST 2025
 CP2K| Program compiled on                                              n2login1
 CP2K| Program compiled for                                                local
 CP2K| Data directory path    /opt/software/pc2/EB-SW/software/CP2K/2024.1-foss-
 CP2K| Input file name                                                    GW.inp

 GLOBAL| Force Environment number                                              1
 GLOBAL| Basis set file name                                        BASIS_MOLOPT
 GLOBAL| Potential file name                                  GTH_SOC_POTENTIALS
 GLOBAL| MM Potential file name                                     MM_POTENTIAL
 GLOBAL| Coordinate file name                                      __STD_INPUT__
 GLOBAL| Method name                                                        CP2K
 GLOBAL| Project name                                                        WS2
 GLOBAL| Run type                                                         ENERGY
 GLOBAL| FFT library                                                       FFTW3
 GLOBAL| Diagonalization library                                            ELPA
 GLOBAL| Cholesky decomposition library                                ScaLAPACK
 GLOBAL| DGEMM library                                                      BLAS
 GLOBAL| Minimum number of eigenvectors for ELPA usage                        16
 GLOBAL| Orthonormality check for eigenvectors                          DISABLED
 GLOBAL| Matrix multiplication library                                     COSMA
 GLOBAL| All-to-all communication in single precision                          F
 GLOBAL| FFTs using library dependent lengths                                  F
 GLOBAL| Grid backend                                                       AUTO
 GLOBAL| Global print level                                               MEDIUM
 GLOBAL| MPI I/O enabled                                                       T
 GLOBAL| Total number of message passing processes                           256
 GLOBAL| Number of threads for this process                                    8
 GLOBAL| This output is from process                                           0
 GLOBAL| OpenMP stack size per thread (OMP_STACKSIZE)                    default
 GLOBAL| CPU model name                          AMD EPYC 7763 64-Core Processor
 GLOBAL| CPUID                                                              1002

 MEMORY| system memory details [Kb]
 MEMORY|                        rank 0           min           max       average
 MEMORY| MemTotal            263897624     263897572     263897632     263897600
 MEMORY| MemFree             240859104     238600936     245785564     241637677
 MEMORY| Buffers                144488         19204        164104         92286
 MEMORY| Cached               14751892      10220772      16827760      13988686
 MEMORY| Slab                  2327736       2048916       2996872       2426590
 MEMORY| SReclaimable           720196        555836       1333668        825610
 MEMORY| MemLikelyFree       256475680     256380004     256763644     256544262


 *** Fundamental physical constants (SI units) ***

 *** Literature: B. J. Mohr and B. N. Taylor,
 ***             CODATA recommended values of the fundamental physical
 ***             constants: 2006, Web Version 5.1
 ***             http://physics.nist.gov/constants

 Speed of light in vacuum [m/s]                             2.99792458000000E+08
 Magnetic constant or permeability of vacuum [N/A**2]       1.25663706143592E-06
 Electric constant or permittivity of vacuum [F/m]          8.85418781762039E-12
 Planck constant (h) [J*s]                                  6.62606896000000E-34
 Planck constant (h-bar) [J*s]                              1.05457162825177E-34
 Elementary charge [C]                                      1.60217648700000E-19
 Electron mass [kg]                                         9.10938215000000E-31
 Electron g factor [ ]                                     -2.00231930436220E+00
 Proton mass [kg]                                           1.67262163700000E-27
 Fine-structure constant                                    7.29735253760000E-03
 Rydberg constant [1/m]                                     1.09737315685270E+07
 Avogadro constant [1/mol]                                  6.02214179000000E+23
 Boltzmann constant [J/K]                                   1.38065040000000E-23
 Atomic mass unit [kg]                                      1.66053878200000E-27
 Bohr radius [m]                                            5.29177208590000E-11

 *** Conversion factors ***

 [u] -> [a.u.]                                              1.82288848426455E+03
 [Angstrom] -> [Bohr] = [a.u.]                              1.88972613288564E+00
 [a.u.] = [Bohr] -> [Angstrom]                              5.29177208590000E-01
 [a.u.] -> [s]                                              2.41888432650478E-17
 [a.u.] -> [fs]                                             2.41888432650478E-02
 [a.u.] -> [J]                                              4.35974393937059E-18
 [a.u.] -> [N]                                              8.23872205491840E-08
 [a.u.] -> [K]                                              3.15774647902944E+05
 [a.u.] -> [kJ/mol]                                         2.62549961709828E+03
 [a.u.] -> [kcal/mol]                                       6.27509468713739E+02
 [a.u.] -> [Pa]                                             2.94210107994716E+13
 [a.u.] -> [bar]                                            2.94210107994716E+08
 [a.u.] -> [atm]                                            2.90362800883016E+08
 [a.u.] -> [eV]                                             2.72113838565563E+01
 [a.u.] -> [Hz]                                             6.57968392072181E+15
 [a.u.] -> [1/cm] (wave numbers)                            2.19474631370540E+05
 [a.u./Bohr**2] -> [1/cm]                                   5.14048714338585E+03
 

 CELL_TOP| Volume [angstrom^3]:                                       131.860110
 CELL_TOP| Vector a [angstrom     3.186     0.000     0.000   |a| =     3.186000
 CELL_TOP| Vector b [angstrom    -1.593     2.759     0.000   |b| =     3.186000
 CELL_TOP| Vector c [angstrom     0.000     0.000    15.000   |c| =    15.000000
 CELL_TOP| Angle (b,c), alpha [degree]:                                90.000000
 CELL_TOP| Angle (a,c), beta  [degree]:                                90.000000
 CELL_TOP| Angle (a,b), gamma [degree]:                               120.000000
 CELL_TOP| Numerically orthorhombic:                                          NO
 CELL_TOP| Periodicity                                                        XY

 GENERATE|  Preliminary Number of Bonds generated:                             0
 GENERATE|  Achieved consistency in connectivity generation.

 CELL| Volume [angstrom^3]:                                           131.860110
 CELL| Vector a [angstrom]:       3.186     0.000     0.000   |a| =     3.186000
 CELL| Vector b [angstrom]:      -1.593     2.759     0.000   |b| =     3.186000
 CELL| Vector c [angstrom]:       0.000     0.000    15.000   |c| =    15.000000
 CELL| Angle (b,c), alpha [degree]:                                    90.000000
 CELL| Angle (a,c), beta  [degree]:                                    90.000000
 CELL| Angle (a,b), gamma [degree]:                                   120.000000
 CELL| Numerically orthorhombic:                                              NO
 CELL| Periodicity                                                            XY

 CELL_REF| Volume [angstrom^3]:                                       131.860110
 CELL_REF| Vector a [angstrom     3.186     0.000     0.000   |a| =     3.186000
 CELL_REF| Vector b [angstrom    -1.593     2.759     0.000   |b| =     3.186000
 CELL_REF| Vector c [angstrom     0.000     0.000    15.000   |c| =    15.000000
 CELL_REF| Angle (b,c), alpha [degree]:                                90.000000
 CELL_REF| Angle (a,c), beta  [degree]:                                90.000000
 CELL_REF| Angle (a,b), gamma [degree]:                               120.000000
 CELL_REF| Numerically orthorhombic:                                          NO
 CELL_REF| Periodicity                                                        XY

 *******************************************************************************
                                    Kpoints
 *******************************************************************************
 BRILLOUIN| K-point scheme                                        Monkhorst-Pack
 BRILLOUIN| K-Point grid                                            32   32    1
 BRILLOUIN| Accuracy in Symmetry determination                      0.100000E-05
 BRILLOUIN| K-Point point group symmetrization                               OFF
 BRILLOUIN| Wavefunction type                                            COMPLEX
 BRILLOUIN| List of Kpoints [2 Pi/Bohr]                                      512
 BRILLOUIN| Number           Weight            X              Y              Z
 BRILLOUIN|     1           0.00195       -0.48438       -0.48438        0.00000
 BRILLOUIN|     2           0.00195       -0.48438       -0.45312        0.00000
 BRILLOUIN|     3           0.00195       -0.48438       -0.42188        0.00000
 BRILLOUIN|     4           0.00195       -0.48438       -0.39062        0.00000
 BRILLOUIN|     5           0.00195       -0.48438       -0.35938        0.00000
 BRILLOUIN|     6           0.00195       -0.48438       -0.32812        0.00000
 BRILLOUIN|     7           0.00195       -0.48438       -0.29688        0.00000
 BRILLOUIN|     8           0.00195       -0.48438       -0.26562        0.00000
 BRILLOUIN|     9           0.00195       -0.48438       -0.23438        0.00000
 BRILLOUIN|    10           0.00195       -0.48438       -0.20312        0.00000
 BRILLOUIN|    11           0.00195       -0.48438       -0.17188        0.00000
 BRILLOUIN|    12           0.00195       -0.48438       -0.14062        0.00000
 BRILLOUIN|    13           0.00195       -0.48438       -0.10938        0.00000
 BRILLOUIN|    14           0.00195       -0.48438       -0.07812        0.00000
 BRILLOUIN|    15           0.00195       -0.48438       -0.04688        0.00000
 BRILLOUIN|    16           0.00195       -0.48438       -0.01562        0.00000
 BRILLOUIN|    17           0.00195       -0.48438        0.01562        0.00000
 BRILLOUIN|    18           0.00195       -0.48438        0.04688        0.00000
 BRILLOUIN|    19           0.00195       -0.48438        0.07812        0.00000
 BRILLOUIN|    20           0.00195       -0.48438        0.10938        0.00000
 BRILLOUIN|    21           0.00195       -0.48438        0.14062        0.00000
 BRILLOUIN|    22           0.00195       -0.48438        0.17188        0.00000
 BRILLOUIN|    23           0.00195       -0.48438        0.20312        0.00000
 BRILLOUIN|    24           0.00195       -0.48438        0.23438        0.00000
 BRILLOUIN|    25           0.00195       -0.48438        0.26562        0.00000
 BRILLOUIN|    26           0.00195       -0.48438        0.29688        0.00000
 BRILLOUIN|    27           0.00195       -0.48438        0.32812        0.00000
 BRILLOUIN|    28           0.00195       -0.48438        0.35938        0.00000
 BRILLOUIN|    29           0.00195       -0.48438        0.39062        0.00000
 BRILLOUIN|    30           0.00195       -0.48438        0.42188        0.00000
 BRILLOUIN|    31           0.00195       -0.48438        0.45312        0.00000
 BRILLOUIN|    32           0.00195       -0.48438        0.48438        0.00000
 BRILLOUIN|    33           0.00195       -0.45312       -0.48438        0.00000
 BRILLOUIN|    34           0.00195       -0.45312       -0.45312        0.00000
 BRILLOUIN|    35           0.00195       -0.45312       -0.42188        0.00000
 BRILLOUIN|    36           0.00195       -0.45312       -0.39062        0.00000
 BRILLOUIN|    37           0.00195       -0.45312       -0.35938        0.00000
 BRILLOUIN|    38           0.00195       -0.45312       -0.32812        0.00000
 BRILLOUIN|    39           0.00195       -0.45312       -0.29688        0.00000
 BRILLOUIN|    40           0.00195       -0.45312       -0.26562        0.00000
 BRILLOUIN|    41           0.00195       -0.45312       -0.23438        0.00000
 BRILLOUIN|    42           0.00195       -0.45312       -0.20312        0.00000
 BRILLOUIN|    43           0.00195       -0.45312       -0.17188        0.00000
 BRILLOUIN|    44           0.00195       -0.45312       -0.14062        0.00000
 BRILLOUIN|    45           0.00195       -0.45312       -0.10938        0.00000
 BRILLOUIN|    46           0.00195       -0.45312       -0.07812        0.00000
 BRILLOUIN|    47           0.00195       -0.45312       -0.04688        0.00000
 BRILLOUIN|    48           0.00195       -0.45312       -0.01562        0.00000
 BRILLOUIN|    49           0.00195       -0.45312        0.01562        0.00000
 BRILLOUIN|    50           0.00195       -0.45312        0.04688        0.00000
 BRILLOUIN|    51           0.00195       -0.45312        0.07812        0.00000
 BRILLOUIN|    52           0.00195       -0.45312        0.10938        0.00000
 BRILLOUIN|    53           0.00195       -0.45312        0.14062        0.00000
 BRILLOUIN|    54           0.00195       -0.45312        0.17188        0.00000
 BRILLOUIN|    55           0.00195       -0.45312        0.20312        0.00000
 BRILLOUIN|    56           0.00195       -0.45312        0.23438        0.00000
 BRILLOUIN|    57           0.00195       -0.45312        0.26562        0.00000
 BRILLOUIN|    58           0.00195       -0.45312        0.29688        0.00000
 BRILLOUIN|    59           0.00195       -0.45312        0.32812        0.00000
 BRILLOUIN|    60           0.00195       -0.45312        0.35938        0.00000
 BRILLOUIN|    61           0.00195       -0.45312        0.39062        0.00000
 BRILLOUIN|    62           0.00195       -0.45312        0.42188        0.00000
 BRILLOUIN|    63           0.00195       -0.45312        0.45312        0.00000
 BRILLOUIN|    64           0.00195       -0.45312        0.48438        0.00000
 BRILLOUIN|    65           0.00195       -0.42188       -0.48438        0.00000
 BRILLOUIN|    66           0.00195       -0.42188       -0.45312        0.00000
 BRILLOUIN|    67           0.00195       -0.42188       -0.42188        0.00000
 BRILLOUIN|    68           0.00195       -0.42188       -0.39062        0.00000
 BRILLOUIN|    69           0.00195       -0.42188       -0.35938        0.00000
 BRILLOUIN|    70           0.00195       -0.42188       -0.32812        0.00000
 BRILLOUIN|    71           0.00195       -0.42188       -0.29688        0.00000
 BRILLOUIN|    72           0.00195       -0.42188       -0.26562        0.00000
 BRILLOUIN|    73           0.00195       -0.42188       -0.23438        0.00000
 BRILLOUIN|    74           0.00195       -0.42188       -0.20312        0.00000
 BRILLOUIN|    75           0.00195       -0.42188       -0.17188        0.00000
 BRILLOUIN|    76           0.00195       -0.42188       -0.14062        0.00000
 BRILLOUIN|    77           0.00195       -0.42188       -0.10938        0.00000
 BRILLOUIN|    78           0.00195       -0.42188       -0.07812        0.00000
 BRILLOUIN|    79           0.00195       -0.42188       -0.04688        0.00000
 BRILLOUIN|    80           0.00195       -0.42188       -0.01562        0.00000
 BRILLOUIN|    81           0.00195       -0.42188        0.01562        0.00000
 BRILLOUIN|    82           0.00195       -0.42188        0.04688        0.00000
 BRILLOUIN|    83           0.00195       -0.42188        0.07812        0.00000
 BRILLOUIN|    84           0.00195       -0.42188        0.10938        0.00000
 BRILLOUIN|    85           0.00195       -0.42188        0.14062        0.00000
 BRILLOUIN|    86           0.00195       -0.42188        0.17188        0.00000
 BRILLOUIN|    87           0.00195       -0.42188        0.20312        0.00000
 BRILLOUIN|    88           0.00195       -0.42188        0.23438        0.00000
 BRILLOUIN|    89           0.00195       -0.42188        0.26562        0.00000
 BRILLOUIN|    90           0.00195       -0.42188        0.29688        0.00000
 BRILLOUIN|    91           0.00195       -0.42188        0.32812        0.00000
 BRILLOUIN|    92           0.00195       -0.42188        0.35938        0.00000
 BRILLOUIN|    93           0.00195       -0.42188        0.39062        0.00000
 BRILLOUIN|    94           0.00195       -0.42188        0.42188        0.00000
 BRILLOUIN|    95           0.00195       -0.42188        0.45312        0.00000
 BRILLOUIN|    96           0.00195       -0.42188        0.48438        0.00000
 BRILLOUIN|    97           0.00195       -0.39062       -0.48438        0.00000
 BRILLOUIN|    98           0.00195       -0.39062       -0.45312        0.00000
 BRILLOUIN|    99           0.00195       -0.39062       -0.42188        0.00000
 BRILLOUIN|   100           0.00195       -0.39062       -0.39062        0.00000
 BRILLOUIN|   101           0.00195       -0.39062       -0.35938        0.00000
 BRILLOUIN|   102           0.00195       -0.39062       -0.32812        0.00000
 BRILLOUIN|   103           0.00195       -0.39062       -0.29688        0.00000
 BRILLOUIN|   104           0.00195       -0.39062       -0.26562        0.00000
 BRILLOUIN|   105           0.00195       -0.39062       -0.23438        0.00000
 BRILLOUIN|   106           0.00195       -0.39062       -0.20312        0.00000
 BRILLOUIN|   107           0.00195       -0.39062       -0.17188        0.00000
 BRILLOUIN|   108           0.00195       -0.39062       -0.14062        0.00000
 BRILLOUIN|   109           0.00195       -0.39062       -0.10938        0.00000
 BRILLOUIN|   110           0.00195       -0.39062       -0.07812        0.00000
 BRILLOUIN|   111           0.00195       -0.39062       -0.04688        0.00000
 BRILLOUIN|   112           0.00195       -0.39062       -0.01562        0.00000
 BRILLOUIN|   113           0.00195       -0.39062        0.01562        0.00000
 BRILLOUIN|   114           0.00195       -0.39062        0.04688        0.00000
 BRILLOUIN|   115           0.00195       -0.39062        0.07812        0.00000
 BRILLOUIN|   116           0.00195       -0.39062        0.10938        0.00000
 BRILLOUIN|   117           0.00195       -0.39062        0.14062        0.00000
 BRILLOUIN|   118           0.00195       -0.39062        0.17188        0.00000
 BRILLOUIN|   119           0.00195       -0.39062        0.20312        0.00000
 BRILLOUIN|   120           0.00195       -0.39062        0.23438        0.00000
 BRILLOUIN|   121           0.00195       -0.39062        0.26562        0.00000
 BRILLOUIN|   122           0.00195       -0.39062        0.29688        0.00000
 BRILLOUIN|   123           0.00195       -0.39062        0.32812        0.00000
 BRILLOUIN|   124           0.00195       -0.39062        0.35938        0.00000
 BRILLOUIN|   125           0.00195       -0.39062        0.39062        0.00000
 BRILLOUIN|   126           0.00195       -0.39062        0.42188        0.00000
 BRILLOUIN|   127           0.00195       -0.39062        0.45312        0.00000
 BRILLOUIN|   128           0.00195       -0.39062        0.48438        0.00000
 BRILLOUIN|   129           0.00195       -0.35938       -0.48438        0.00000
 BRILLOUIN|   130           0.00195       -0.35938       -0.45312        0.00000
 BRILLOUIN|   131           0.00195       -0.35938       -0.42188        0.00000
 BRILLOUIN|   132           0.00195       -0.35938       -0.39062        0.00000
 BRILLOUIN|   133           0.00195       -0.35938       -0.35938        0.00000
 BRILLOUIN|   134           0.00195       -0.35938       -0.32812        0.00000
 BRILLOUIN|   135           0.00195       -0.35938       -0.29688        0.00000
 BRILLOUIN|   136           0.00195       -0.35938       -0.26562        0.00000
 BRILLOUIN|   137           0.00195       -0.35938       -0.23438        0.00000
 BRILLOUIN|   138           0.00195       -0.35938       -0.20312        0.00000
 BRILLOUIN|   139           0.00195       -0.35938       -0.17188        0.00000
 BRILLOUIN|   140           0.00195       -0.35938       -0.14062        0.00000
 BRILLOUIN|   141           0.00195       -0.35938       -0.10938        0.00000
 BRILLOUIN|   142           0.00195       -0.35938       -0.07812        0.00000
 BRILLOUIN|   143           0.00195       -0.35938       -0.04688        0.00000
 BRILLOUIN|   144           0.00195       -0.35938       -0.01562        0.00000
 BRILLOUIN|   145           0.00195       -0.35938        0.01562        0.00000
 BRILLOUIN|   146           0.00195       -0.35938        0.04688        0.00000
 BRILLOUIN|   147           0.00195       -0.35938        0.07812        0.00000
 BRILLOUIN|   148           0.00195       -0.35938        0.10938        0.00000
 BRILLOUIN|   149           0.00195       -0.35938        0.14062        0.00000
 BRILLOUIN|   150           0.00195       -0.35938        0.17188        0.00000
 BRILLOUIN|   151           0.00195       -0.35938        0.20312        0.00000
 BRILLOUIN|   152           0.00195       -0.35938        0.23438        0.00000
 BRILLOUIN|   153           0.00195       -0.35938        0.26562        0.00000
 BRILLOUIN|   154           0.00195       -0.35938        0.29688        0.00000
 BRILLOUIN|   155           0.00195       -0.35938        0.32812        0.00000
 BRILLOUIN|   156           0.00195       -0.35938        0.35938        0.00000
 BRILLOUIN|   157           0.00195       -0.35938        0.39062        0.00000
 BRILLOUIN|   158           0.00195       -0.35938        0.42188        0.00000
 BRILLOUIN|   159           0.00195       -0.35938        0.45312        0.00000
 BRILLOUIN|   160           0.00195       -0.35938        0.48438        0.00000
 BRILLOUIN|   161           0.00195       -0.32812       -0.48438        0.00000
 BRILLOUIN|   162           0.00195       -0.32812       -0.45312        0.00000
 BRILLOUIN|   163           0.00195       -0.32812       -0.42188        0.00000
 BRILLOUIN|   164           0.00195       -0.32812       -0.39062        0.00000
 BRILLOUIN|   165           0.00195       -0.32812       -0.35938        0.00000
 BRILLOUIN|   166           0.00195       -0.32812       -0.32812        0.00000
 BRILLOUIN|   167           0.00195       -0.32812       -0.29688        0.00000
 BRILLOUIN|   168           0.00195       -0.32812       -0.26562        0.00000
 BRILLOUIN|   169           0.00195       -0.32812       -0.23438        0.00000
 BRILLOUIN|   170           0.00195       -0.32812       -0.20312        0.00000
 BRILLOUIN|   171           0.00195       -0.32812       -0.17188        0.00000
 BRILLOUIN|   172           0.00195       -0.32812       -0.14062        0.00000
 BRILLOUIN|   173           0.00195       -0.32812       -0.10938        0.00000
 BRILLOUIN|   174           0.00195       -0.32812       -0.07812        0.00000
 BRILLOUIN|   175           0.00195       -0.32812       -0.04688        0.00000
 BRILLOUIN|   176           0.00195       -0.32812       -0.01562        0.00000
 BRILLOUIN|   177           0.00195       -0.32812        0.01562        0.00000
 BRILLOUIN|   178           0.00195       -0.32812        0.04688        0.00000
 BRILLOUIN|   179           0.00195       -0.32812        0.07812        0.00000
 BRILLOUIN|   180           0.00195       -0.32812        0.10938        0.00000
 BRILLOUIN|   181           0.00195       -0.32812        0.14062        0.00000
 BRILLOUIN|   182           0.00195       -0.32812        0.17188        0.00000
 BRILLOUIN|   183           0.00195       -0.32812        0.20312        0.00000
 BRILLOUIN|   184           0.00195       -0.32812        0.23438        0.00000
 BRILLOUIN|   185           0.00195       -0.32812        0.26562        0.00000
 BRILLOUIN|   186           0.00195       -0.32812        0.29688        0.00000
 BRILLOUIN|   187           0.00195       -0.32812        0.32812        0.00000
 BRILLOUIN|   188           0.00195       -0.32812        0.35938        0.00000
 BRILLOUIN|   189           0.00195       -0.32812        0.39062        0.00000
 BRILLOUIN|   190           0.00195       -0.32812        0.42188        0.00000
 BRILLOUIN|   191           0.00195       -0.32812        0.45312        0.00000
 BRILLOUIN|   192           0.00195       -0.32812        0.48438        0.00000
 BRILLOUIN|   193           0.00195       -0.29688       -0.48438        0.00000
 BRILLOUIN|   194           0.00195       -0.29688       -0.45312        0.00000
 BRILLOUIN|   195           0.00195       -0.29688       -0.42188        0.00000
 BRILLOUIN|   196           0.00195       -0.29688       -0.39062        0.00000
 BRILLOUIN|   197           0.00195       -0.29688       -0.35938        0.00000
 BRILLOUIN|   198           0.00195       -0.29688       -0.32812        0.00000
 BRILLOUIN|   199           0.00195       -0.29688       -0.29688        0.00000
 BRILLOUIN|   200           0.00195       -0.29688       -0.26562        0.00000
 BRILLOUIN|   201           0.00195       -0.29688       -0.23438        0.00000
 BRILLOUIN|   202           0.00195       -0.29688       -0.20312        0.00000
 BRILLOUIN|   203           0.00195       -0.29688       -0.17188        0.00000
 BRILLOUIN|   204           0.00195       -0.29688       -0.14062        0.00000
 BRILLOUIN|   205           0.00195       -0.29688       -0.10938        0.00000
 BRILLOUIN|   206           0.00195       -0.29688       -0.07812        0.00000
 BRILLOUIN|   207           0.00195       -0.29688       -0.04688        0.00000
 BRILLOUIN|   208           0.00195       -0.29688       -0.01562        0.00000
 BRILLOUIN|   209           0.00195       -0.29688        0.01562        0.00000
 BRILLOUIN|   210           0.00195       -0.29688        0.04688        0.00000
 BRILLOUIN|   211           0.00195       -0.29688        0.07812        0.00000
 BRILLOUIN|   212           0.00195       -0.29688        0.10938        0.00000
 BRILLOUIN|   213           0.00195       -0.29688        0.14062        0.00000
 BRILLOUIN|   214           0.00195       -0.29688        0.17188        0.00000
 BRILLOUIN|   215           0.00195       -0.29688        0.20312        0.00000
 BRILLOUIN|   216           0.00195       -0.29688        0.23438        0.00000
 BRILLOUIN|   217           0.00195       -0.29688        0.26562        0.00000
 BRILLOUIN|   218           0.00195       -0.29688        0.29688        0.00000
 BRILLOUIN|   219           0.00195       -0.29688        0.32812        0.00000
 BRILLOUIN|   220           0.00195       -0.29688        0.35938        0.00000
 BRILLOUIN|   221           0.00195       -0.29688        0.39062        0.00000
 BRILLOUIN|   222           0.00195       -0.29688        0.42188        0.00000
 BRILLOUIN|   223           0.00195       -0.29688        0.45312        0.00000
 BRILLOUIN|   224           0.00195       -0.29688        0.48438        0.00000
 BRILLOUIN|   225           0.00195       -0.26562       -0.48438        0.00000
 BRILLOUIN|   226           0.00195       -0.26562       -0.45312        0.00000
 BRILLOUIN|   227           0.00195       -0.26562       -0.42188        0.00000
 BRILLOUIN|   228           0.00195       -0.26562       -0.39062        0.00000
 BRILLOUIN|   229           0.00195       -0.26562       -0.35938        0.00000
 BRILLOUIN|   230           0.00195       -0.26562       -0.32812        0.00000
 BRILLOUIN|   231           0.00195       -0.26562       -0.29688        0.00000
 BRILLOUIN|   232           0.00195       -0.26562       -0.26562        0.00000
 BRILLOUIN|   233           0.00195       -0.26562       -0.23438        0.00000
 BRILLOUIN|   234           0.00195       -0.26562       -0.20312        0.00000
 BRILLOUIN|   235           0.00195       -0.26562       -0.17188        0.00000
 BRILLOUIN|   236           0.00195       -0.26562       -0.14062        0.00000
 BRILLOUIN|   237           0.00195       -0.26562       -0.10938        0.00000
 BRILLOUIN|   238           0.00195       -0.26562       -0.07812        0.00000
 BRILLOUIN|   239           0.00195       -0.26562       -0.04688        0.00000
 BRILLOUIN|   240           0.00195       -0.26562       -0.01562        0.00000
 BRILLOUIN|   241           0.00195       -0.26562        0.01562        0.00000
 BRILLOUIN|   242           0.00195       -0.26562        0.04688        0.00000
 BRILLOUIN|   243           0.00195       -0.26562        0.07812        0.00000
 BRILLOUIN|   244           0.00195       -0.26562        0.10938        0.00000
 BRILLOUIN|   245           0.00195       -0.26562        0.14062        0.00000
 BRILLOUIN|   246           0.00195       -0.26562        0.17188        0.00000
 BRILLOUIN|   247           0.00195       -0.26562        0.20312        0.00000
 BRILLOUIN|   248           0.00195       -0.26562        0.23438        0.00000
 BRILLOUIN|   249           0.00195       -0.26562        0.26562        0.00000
 BRILLOUIN|   250           0.00195       -0.26562        0.29688        0.00000
 BRILLOUIN|   251           0.00195       -0.26562        0.32812        0.00000
 BRILLOUIN|   252           0.00195       -0.26562        0.35938        0.00000
 BRILLOUIN|   253           0.00195       -0.26562        0.39062        0.00000
 BRILLOUIN|   254           0.00195       -0.26562        0.42188        0.00000
 BRILLOUIN|   255           0.00195       -0.26562        0.45312        0.00000
 BRILLOUIN|   256           0.00195       -0.26562        0.48438        0.00000
 BRILLOUIN|   257           0.00195       -0.23438       -0.48438        0.00000
 BRILLOUIN|   258           0.00195       -0.23438       -0.45312        0.00000
 BRILLOUIN|   259           0.00195       -0.23438       -0.42188        0.00000
 BRILLOUIN|   260           0.00195       -0.23438       -0.39062        0.00000
 BRILLOUIN|   261           0.00195       -0.23438       -0.35938        0.00000
 BRILLOUIN|   262           0.00195       -0.23438       -0.32812        0.00000
 BRILLOUIN|   263           0.00195       -0.23438       -0.29688        0.00000
 BRILLOUIN|   264           0.00195       -0.23438       -0.26562        0.00000
 BRILLOUIN|   265           0.00195       -0.23438       -0.23438        0.00000
 BRILLOUIN|   266           0.00195       -0.23438       -0.20312        0.00000
 BRILLOUIN|   267           0.00195       -0.23438       -0.17188        0.00000
 BRILLOUIN|   268           0.00195       -0.23438       -0.14062        0.00000
 BRILLOUIN|   269           0.00195       -0.23438       -0.10938        0.00000
 BRILLOUIN|   270           0.00195       -0.23438       -0.07812        0.00000
 BRILLOUIN|   271           0.00195       -0.23438       -0.04688        0.00000
 BRILLOUIN|   272           0.00195       -0.23438       -0.01562        0.00000
 BRILLOUIN|   273           0.00195       -0.23438        0.01562        0.00000
 BRILLOUIN|   274           0.00195       -0.23438        0.04688        0.00000
 BRILLOUIN|   275           0.00195       -0.23438        0.07812        0.00000
 BRILLOUIN|   276           0.00195       -0.23438        0.10938        0.00000
 BRILLOUIN|   277           0.00195       -0.23438        0.14062        0.00000
 BRILLOUIN|   278           0.00195       -0.23438        0.17188        0.00000
 BRILLOUIN|   279           0.00195       -0.23438        0.20312        0.00000
 BRILLOUIN|   280           0.00195       -0.23438        0.23438        0.00000
 BRILLOUIN|   281           0.00195       -0.23438        0.26562        0.00000
 BRILLOUIN|   282           0.00195       -0.23438        0.29688        0.00000
 BRILLOUIN|   283           0.00195       -0.23438        0.32812        0.00000
 BRILLOUIN|   284           0.00195       -0.23438        0.35938        0.00000
 BRILLOUIN|   285           0.00195       -0.23438        0.39062        0.00000
 BRILLOUIN|   286           0.00195       -0.23438        0.42188        0.00000
 BRILLOUIN|   287           0.00195       -0.23438        0.45312        0.00000
 BRILLOUIN|   288           0.00195       -0.23438        0.48438        0.00000
 BRILLOUIN|   289           0.00195       -0.20312       -0.48438        0.00000
 BRILLOUIN|   290           0.00195       -0.20312       -0.45312        0.00000
 BRILLOUIN|   291           0.00195       -0.20312       -0.42188        0.00000
 BRILLOUIN|   292           0.00195       -0.20312       -0.39062        0.00000
 BRILLOUIN|   293           0.00195       -0.20312       -0.35938        0.00000
 BRILLOUIN|   294           0.00195       -0.20312       -0.32812        0.00000
 BRILLOUIN|   295           0.00195       -0.20312       -0.29688        0.00000
 BRILLOUIN|   296           0.00195       -0.20312       -0.26562        0.00000
 BRILLOUIN|   297           0.00195       -0.20312       -0.23438        0.00000
 BRILLOUIN|   298           0.00195       -0.20312       -0.20312        0.00000
 BRILLOUIN|   299           0.00195       -0.20312       -0.17188        0.00000
 BRILLOUIN|   300           0.00195       -0.20312       -0.14062        0.00000
 BRILLOUIN|   301           0.00195       -0.20312       -0.10938        0.00000
 BRILLOUIN|   302           0.00195       -0.20312       -0.07812        0.00000
 BRILLOUIN|   303           0.00195       -0.20312       -0.04688        0.00000
 BRILLOUIN|   304           0.00195       -0.20312       -0.01562        0.00000
 BRILLOUIN|   305           0.00195       -0.20312        0.01562        0.00000
 BRILLOUIN|   306           0.00195       -0.20312        0.04688        0.00000
 BRILLOUIN|   307           0.00195       -0.20312        0.07812        0.00000
 BRILLOUIN|   308           0.00195       -0.20312        0.10938        0.00000
 BRILLOUIN|   309           0.00195       -0.20312        0.14062        0.00000
 BRILLOUIN|   310           0.00195       -0.20312        0.17188        0.00000
 BRILLOUIN|   311           0.00195       -0.20312        0.20312        0.00000
 BRILLOUIN|   312           0.00195       -0.20312        0.23438        0.00000
 BRILLOUIN|   313           0.00195       -0.20312        0.26562        0.00000
 BRILLOUIN|   314           0.00195       -0.20312        0.29688        0.00000
 BRILLOUIN|   315           0.00195       -0.20312        0.32812        0.00000
 BRILLOUIN|   316           0.00195       -0.20312        0.35938        0.00000
 BRILLOUIN|   317           0.00195       -0.20312        0.39062        0.00000
 BRILLOUIN|   318           0.00195       -0.20312        0.42188        0.00000
 BRILLOUIN|   319           0.00195       -0.20312        0.45312        0.00000
 BRILLOUIN|   320           0.00195       -0.20312        0.48438        0.00000
 BRILLOUIN|   321           0.00195       -0.17188       -0.48438        0.00000
 BRILLOUIN|   322           0.00195       -0.17188       -0.45312        0.00000
 BRILLOUIN|   323           0.00195       -0.17188       -0.42188        0.00000
 BRILLOUIN|   324           0.00195       -0.17188       -0.39062        0.00000
 BRILLOUIN|   325           0.00195       -0.17188       -0.35938        0.00000
 BRILLOUIN|   326           0.00195       -0.17188       -0.32812        0.00000
 BRILLOUIN|   327           0.00195       -0.17188       -0.29688        0.00000
 BRILLOUIN|   328           0.00195       -0.17188       -0.26562        0.00000
 BRILLOUIN|   329           0.00195       -0.17188       -0.23438        0.00000
 BRILLOUIN|   330           0.00195       -0.17188       -0.20312        0.00000
 BRILLOUIN|   331           0.00195       -0.17188       -0.17188        0.00000
 BRILLOUIN|   332           0.00195       -0.17188       -0.14062        0.00000
 BRILLOUIN|   333           0.00195       -0.17188       -0.10938        0.00000
 BRILLOUIN|   334           0.00195       -0.17188       -0.07812        0.00000
 BRILLOUIN|   335           0.00195       -0.17188       -0.04688        0.00000
 BRILLOUIN|   336           0.00195       -0.17188       -0.01562        0.00000
 BRILLOUIN|   337           0.00195       -0.17188        0.01562        0.00000
 BRILLOUIN|   338           0.00195       -0.17188        0.04688        0.00000
 BRILLOUIN|   339           0.00195       -0.17188        0.07812        0.00000
 BRILLOUIN|   340           0.00195       -0.17188        0.10938        0.00000
 BRILLOUIN|   341           0.00195       -0.17188        0.14062        0.00000
 BRILLOUIN|   342           0.00195       -0.17188        0.17188        0.00000
 BRILLOUIN|   343           0.00195       -0.17188        0.20312        0.00000
 BRILLOUIN|   344           0.00195       -0.17188        0.23438        0.00000
 BRILLOUIN|   345           0.00195       -0.17188        0.26562        0.00000
 BRILLOUIN|   346           0.00195       -0.17188        0.29688        0.00000
 BRILLOUIN|   347           0.00195       -0.17188        0.32812        0.00000
 BRILLOUIN|   348           0.00195       -0.17188        0.35938        0.00000
 BRILLOUIN|   349           0.00195       -0.17188        0.39062        0.00000
 BRILLOUIN|   350           0.00195       -0.17188        0.42188        0.00000
 BRILLOUIN|   351           0.00195       -0.17188        0.45312        0.00000
 BRILLOUIN|   352           0.00195       -0.17188        0.48438        0.00000
 BRILLOUIN|   353           0.00195       -0.14062       -0.48438        0.00000
 BRILLOUIN|   354           0.00195       -0.14062       -0.45312        0.00000
 BRILLOUIN|   355           0.00195       -0.14062       -0.42188        0.00000
 BRILLOUIN|   356           0.00195       -0.14062       -0.39062        0.00000
 BRILLOUIN|   357           0.00195       -0.14062       -0.35938        0.00000
 BRILLOUIN|   358           0.00195       -0.14062       -0.32812        0.00000
 BRILLOUIN|   359           0.00195       -0.14062       -0.29688        0.00000
 BRILLOUIN|   360           0.00195       -0.14062       -0.26562        0.00000
 BRILLOUIN|   361           0.00195       -0.14062       -0.23438        0.00000
 BRILLOUIN|   362           0.00195       -0.14062       -0.20312        0.00000
 BRILLOUIN|   363           0.00195       -0.14062       -0.17188        0.00000
 BRILLOUIN|   364           0.00195       -0.14062       -0.14062        0.00000
 BRILLOUIN|   365           0.00195       -0.14062       -0.10938        0.00000
 BRILLOUIN|   366           0.00195       -0.14062       -0.07812        0.00000
 BRILLOUIN|   367           0.00195       -0.14062       -0.04688        0.00000
 BRILLOUIN|   368           0.00195       -0.14062       -0.01562        0.00000
 BRILLOUIN|   369           0.00195       -0.14062        0.01562        0.00000
 BRILLOUIN|   370           0.00195       -0.14062        0.04688        0.00000
 BRILLOUIN|   371           0.00195       -0.14062        0.07812        0.00000
 BRILLOUIN|   372           0.00195       -0.14062        0.10938        0.00000
 BRILLOUIN|   373           0.00195       -0.14062        0.14062        0.00000
 BRILLOUIN|   374           0.00195       -0.14062        0.17188        0.00000
 BRILLOUIN|   375           0.00195       -0.14062        0.20312        0.00000
 BRILLOUIN|   376           0.00195       -0.14062        0.23438        0.00000
 BRILLOUIN|   377           0.00195       -0.14062        0.26562        0.00000
 BRILLOUIN|   378           0.00195       -0.14062        0.29688        0.00000
 BRILLOUIN|   379           0.00195       -0.14062        0.32812        0.00000
 BRILLOUIN|   380           0.00195       -0.14062        0.35938        0.00000
 BRILLOUIN|   381           0.00195       -0.14062        0.39062        0.00000
 BRILLOUIN|   382           0.00195       -0.14062        0.42188        0.00000
 BRILLOUIN|   383           0.00195       -0.14062        0.45312        0.00000
 BRILLOUIN|   384           0.00195       -0.14062        0.48438        0.00000
 BRILLOUIN|   385           0.00195       -0.10938       -0.48438        0.00000
 BRILLOUIN|   386           0.00195       -0.10938       -0.45312        0.00000
 BRILLOUIN|   387           0.00195       -0.10938       -0.42188        0.00000
 BRILLOUIN|   388           0.00195       -0.10938       -0.39062        0.00000
 BRILLOUIN|   389           0.00195       -0.10938       -0.35938        0.00000
 BRILLOUIN|   390           0.00195       -0.10938       -0.32812        0.00000
 BRILLOUIN|   391           0.00195       -0.10938       -0.29688        0.00000
 BRILLOUIN|   392           0.00195       -0.10938       -0.26562        0.00000
 BRILLOUIN|   393           0.00195       -0.10938       -0.23438        0.00000
 BRILLOUIN|   394           0.00195       -0.10938       -0.20312        0.00000
 BRILLOUIN|   395           0.00195       -0.10938       -0.17188        0.00000
 BRILLOUIN|   396           0.00195       -0.10938       -0.14062        0.00000
 BRILLOUIN|   397           0.00195       -0.10938       -0.10938        0.00000
 BRILLOUIN|   398           0.00195       -0.10938       -0.07812        0.00000
 BRILLOUIN|   399           0.00195       -0.10938       -0.04688        0.00000
 BRILLOUIN|   400           0.00195       -0.10938       -0.01562        0.00000
 BRILLOUIN|   401           0.00195       -0.10938        0.01562        0.00000
 BRILLOUIN|   402           0.00195       -0.10938        0.04688        0.00000
 BRILLOUIN|   403           0.00195       -0.10938        0.07812        0.00000
 BRILLOUIN|   404           0.00195       -0.10938        0.10938        0.00000
 BRILLOUIN|   405           0.00195       -0.10938        0.14062        0.00000
 BRILLOUIN|   406           0.00195       -0.10938        0.17188        0.00000
 BRILLOUIN|   407           0.00195       -0.10938        0.20312        0.00000
 BRILLOUIN|   408           0.00195       -0.10938        0.23438        0.00000
 BRILLOUIN|   409           0.00195       -0.10938        0.26562        0.00000
 BRILLOUIN|   410           0.00195       -0.10938        0.29688        0.00000
 BRILLOUIN|   411           0.00195       -0.10938        0.32812        0.00000
 BRILLOUIN|   412           0.00195       -0.10938        0.35938        0.00000
 BRILLOUIN|   413           0.00195       -0.10938        0.39062        0.00000
 BRILLOUIN|   414           0.00195       -0.10938        0.42188        0.00000
 BRILLOUIN|   415           0.00195       -0.10938        0.45312        0.00000
 BRILLOUIN|   416           0.00195       -0.10938        0.48438        0.00000
 BRILLOUIN|   417           0.00195       -0.07812       -0.48438        0.00000
 BRILLOUIN|   418           0.00195       -0.07812       -0.45312        0.00000
 BRILLOUIN|   419           0.00195       -0.07812       -0.42188        0.00000
 BRILLOUIN|   420           0.00195       -0.07812       -0.39062        0.00000
 BRILLOUIN|   421           0.00195       -0.07812       -0.35938        0.00000
 BRILLOUIN|   422           0.00195       -0.07812       -0.32812        0.00000
 BRILLOUIN|   423           0.00195       -0.07812       -0.29688        0.00000
 BRILLOUIN|   424           0.00195       -0.07812       -0.26562        0.00000
 BRILLOUIN|   425           0.00195       -0.07812       -0.23438        0.00000
 BRILLOUIN|   426           0.00195       -0.07812       -0.20312        0.00000
 BRILLOUIN|   427           0.00195       -0.07812       -0.17188        0.00000
 BRILLOUIN|   428           0.00195       -0.07812       -0.14062        0.00000
 BRILLOUIN|   429           0.00195       -0.07812       -0.10938        0.00000
 BRILLOUIN|   430           0.00195       -0.07812       -0.07812        0.00000
 BRILLOUIN|   431           0.00195       -0.07812       -0.04688        0.00000
 BRILLOUIN|   432           0.00195       -0.07812       -0.01562        0.00000
 BRILLOUIN|   433           0.00195       -0.07812        0.01562        0.00000
 BRILLOUIN|   434           0.00195       -0.07812        0.04688        0.00000
 BRILLOUIN|   435           0.00195       -0.07812        0.07812        0.00000
 BRILLOUIN|   436           0.00195       -0.07812        0.10938        0.00000
 BRILLOUIN|   437           0.00195       -0.07812        0.14062        0.00000
 BRILLOUIN|   438           0.00195       -0.07812        0.17188        0.00000
 BRILLOUIN|   439           0.00195       -0.07812        0.20312        0.00000
 BRILLOUIN|   440           0.00195       -0.07812        0.23438        0.00000
 BRILLOUIN|   441           0.00195       -0.07812        0.26562        0.00000
 BRILLOUIN|   442           0.00195       -0.07812        0.29688        0.00000
 BRILLOUIN|   443           0.00195       -0.07812        0.32812        0.00000
 BRILLOUIN|   444           0.00195       -0.07812        0.35938        0.00000
 BRILLOUIN|   445           0.00195       -0.07812        0.39062        0.00000
 BRILLOUIN|   446           0.00195       -0.07812        0.42188        0.00000
 BRILLOUIN|   447           0.00195       -0.07812        0.45312        0.00000
 BRILLOUIN|   448           0.00195       -0.07812        0.48438        0.00000
 BRILLOUIN|   449           0.00195       -0.04688       -0.48438        0.00000
 BRILLOUIN|   450           0.00195       -0.04688       -0.45312        0.00000
 BRILLOUIN|   451           0.00195       -0.04688       -0.42188        0.00000
 BRILLOUIN|   452           0.00195       -0.04688       -0.39062        0.00000
 BRILLOUIN|   453           0.00195       -0.04688       -0.35938        0.00000
 BRILLOUIN|   454           0.00195       -0.04688       -0.32812        0.00000
 BRILLOUIN|   455           0.00195       -0.04688       -0.29688        0.00000
 BRILLOUIN|   456           0.00195       -0.04688       -0.26562        0.00000
 BRILLOUIN|   457           0.00195       -0.04688       -0.23438        0.00000
 BRILLOUIN|   458           0.00195       -0.04688       -0.20312        0.00000
 BRILLOUIN|   459           0.00195       -0.04688       -0.17188        0.00000
 BRILLOUIN|   460           0.00195       -0.04688       -0.14062        0.00000
 BRILLOUIN|   461           0.00195       -0.04688       -0.10938        0.00000
 BRILLOUIN|   462           0.00195       -0.04688       -0.07812        0.00000
 BRILLOUIN|   463           0.00195       -0.04688       -0.04688        0.00000
 BRILLOUIN|   464           0.00195       -0.04688       -0.01562        0.00000
 BRILLOUIN|   465           0.00195       -0.04688        0.01562        0.00000
 BRILLOUIN|   466           0.00195       -0.04688        0.04688        0.00000
 BRILLOUIN|   467           0.00195       -0.04688        0.07812        0.00000
 BRILLOUIN|   468           0.00195       -0.04688        0.10938        0.00000
 BRILLOUIN|   469           0.00195       -0.04688        0.14062        0.00000
 BRILLOUIN|   470           0.00195       -0.04688        0.17188        0.00000
 BRILLOUIN|   471           0.00195       -0.04688        0.20312        0.00000
 BRILLOUIN|   472           0.00195       -0.04688        0.23438        0.00000
 BRILLOUIN|   473           0.00195       -0.04688        0.26562        0.00000
 BRILLOUIN|   474           0.00195       -0.04688        0.29688        0.00000
 BRILLOUIN|   475           0.00195       -0.04688        0.32812        0.00000
 BRILLOUIN|   476           0.00195       -0.04688        0.35938        0.00000
 BRILLOUIN|   477           0.00195       -0.04688        0.39062        0.00000
 BRILLOUIN|   478           0.00195       -0.04688        0.42188        0.00000
 BRILLOUIN|   479           0.00195       -0.04688        0.45312        0.00000
 BRILLOUIN|   480           0.00195       -0.04688        0.48438        0.00000
 BRILLOUIN|   481           0.00195       -0.01562       -0.48438        0.00000
 BRILLOUIN|   482           0.00195       -0.01562       -0.45312        0.00000
 BRILLOUIN|   483           0.00195       -0.01562       -0.42188        0.00000
 BRILLOUIN|   484           0.00195       -0.01562       -0.39062        0.00000
 BRILLOUIN|   485           0.00195       -0.01562       -0.35938        0.00000
 BRILLOUIN|   486           0.00195       -0.01562       -0.32812        0.00000
 BRILLOUIN|   487           0.00195       -0.01562       -0.29688        0.00000
 BRILLOUIN|   488           0.00195       -0.01562       -0.26562        0.00000
 BRILLOUIN|   489           0.00195       -0.01562       -0.23438        0.00000
 BRILLOUIN|   490           0.00195       -0.01562       -0.20312        0.00000
 BRILLOUIN|   491           0.00195       -0.01562       -0.17188        0.00000
 BRILLOUIN|   492           0.00195       -0.01562       -0.14062        0.00000
 BRILLOUIN|   493           0.00195       -0.01562       -0.10938        0.00000
 BRILLOUIN|   494           0.00195       -0.01562       -0.07812        0.00000
 BRILLOUIN|   495           0.00195       -0.01562       -0.04688        0.00000
 BRILLOUIN|   496           0.00195       -0.01562       -0.01562        0.00000
 BRILLOUIN|   497           0.00195       -0.01562        0.01562        0.00000
 BRILLOUIN|   498           0.00195       -0.01562        0.04688        0.00000
 BRILLOUIN|   499           0.00195       -0.01562        0.07812        0.00000
 BRILLOUIN|   500           0.00195       -0.01562        0.10938        0.00000
 BRILLOUIN|   501           0.00195       -0.01562        0.14062        0.00000
 BRILLOUIN|   502           0.00195       -0.01562        0.17188        0.00000
 BRILLOUIN|   503           0.00195       -0.01562        0.20312        0.00000
 BRILLOUIN|   504           0.00195       -0.01562        0.23438        0.00000
 BRILLOUIN|   505           0.00195       -0.01562        0.26562        0.00000
 BRILLOUIN|   506           0.00195       -0.01562        0.29688        0.00000
 BRILLOUIN|   507           0.00195       -0.01562        0.32812        0.00000
 BRILLOUIN|   508           0.00195       -0.01562        0.35938        0.00000
 BRILLOUIN|   509           0.00195       -0.01562        0.39062        0.00000
 BRILLOUIN|   510           0.00195       -0.01562        0.42188        0.00000
 BRILLOUIN|   511           0.00195       -0.01562        0.45312        0.00000
 BRILLOUIN|   512           0.00195       -0.01562        0.48438        0.00000
 *******************************************************************************

 *******************************************************************************
 *******************************************************************************
 **                                                                           **
 **     #####                         ##              ##                      **
 **    ##   ##            ##          ##              ##                      **
 **   ##     ##                       ##            ######                    **
 **   ##     ##  ##   ##  ##   #####  ##  ##   ####   ##    #####    #####    **
 **   ##     ##  ##   ##  ##  ##      ## ##   ##      ##   ##   ##  ##   ##   **
 **   ##  ## ##  ##   ##  ##  ##      ####     ###    ##   ######   ######    **
 **    ##  ###   ##   ##  ##  ##      ## ##      ##   ##   ##       ##        **
 **     #######   #####   ##   #####  ##  ##  ####    ##    #####   ##        **
 **           ##                                                    ##        **
 **                                                                           **
 **                                                ... make the atoms dance   **
 **                                                                           **
 **            Copyright (C) by CP2K developers group (2000-2025)             **
 **                      J. Chem. Phys. 152, 194103 (2020)                    **
 **                                                                           **
 *******************************************************************************

 DFT| Spin restricted Kohn-Sham (RKS) calculation                            RKS
 DFT| Multiplicity                                                             1
 DFT| Number of spin states                                                    1
 DFT| Charge                                                                   0
 DFT| Self-interaction correction (SIC)                                       NO
 DFT| Cutoffs: density                                              1.000000E-10
 DFT|          gradient                                             1.000000E-10
 DFT|          tau                                                  1.000000E-10
 DFT|          cutoff_smoothing_range                               0.000000E+00
 DFT| XC density smoothing                                                  NONE
 DFT| XC derivatives                                                          PW

 FUNCTIONAL| PBE:
 FUNCTIONAL| J.P.Perdew, K.Burke, M.Ernzerhof, Phys. Rev. Letter, vol. 77, n 18,
 FUNCTIONAL|  pp. 3865-3868, (1996) {spin unpolarized}                          


 QS| Method:                                                                GAPW
 QS| Density plane wave grid type                        NON-SPHERICAL FULLSPACE
 QS| Number of grid levels:                                                    4
 QS| Density cutoff [a.u.]:                                                250.0
 QS| Multi grid cutoff [a.u.]: 1) grid level                               250.0
 QS|                           2) grid level                                83.3
 QS|                           3) grid level                                27.8
 QS|                           4) grid level                                 9.3
 QS| Grid level progression factor:                                          3.0
 QS| Relative density cutoff [a.u.]:                                        50.0
 QS| Interaction thresholds: eps_pgf_orb:                                1.0E-12
 QS|                         eps_filter_matrix:                          0.0E+00
 QS|                         eps_core_charge:                            1.0E-14
 QS|                         eps_rho_gspace:                             1.0E-12
 QS|                         eps_rho_rspace:                             1.0E-12
 QS|                         eps_gvg_rspace:                             1.0E-06
 QS|                         eps_ppl:                                    1.0E-02
 QS|                         eps_ppnl:                                   1.0E-08
 QS| GAPW|      One center basis from orbital basis primitives
 QS| GAPW|                   eps_fit:                                    1.0E-04
 QS| GAPW|                   eps_iso:                                    1.0E-12
 QS| GAPW|                   eps_svd:                                    1.0E-08
 QS| GAPW|                   eps_cpc:                                    1.0E-12
 QS| GAPW|   atom-r-grid: quadrature:                                     GC_LOG
 QS| GAPW|      atom-s-grid:  max l :                                          4
 QS| GAPW|      max_l_rho0 :                                                   2
 QS| GAPW|      At least one kind is NOT PAW, i.e. it has only soft AO 
 QS| GAPW|      The NOT PAW atoms are treated fully GPW


 ATOMIC KIND INFORMATION

  1. Atomic kind: W                                     Number of atoms:       1

     Orbital Basis Set                                         SZV-MOLOPT-SR-GTH

       Number of orbital shell sets:                                           1
       Number of orbital shells:                                               4
       Number of primitive Cartesian functions:                                6
       Number of Cartesian basis functions:                                   11
       Number of spherical basis functions:                                   10
       Norm type:                                                              2

       Normalised Cartesian orbitals:

                        Set   Shell   Orbital            Exponent    Coefficient

                          1       1    2s                3.103254       0.529378
                                                         2.893835       0.343543
                                                         1.106151      -0.674409
                                                         0.501100      -0.158409
                                                         0.214447      -0.013622
                                                         0.074663      -0.014288

                          1       2    3s                3.103254      -0.097470
                                                         2.893835       0.569553
                                                         1.106151      -0.477566
                                                         0.501100      -0.211692
                                                         0.214447       0.068377
                                                         0.074663       0.097560

                          1       3    3px               3.103254       6.695543
                                                         2.893835      -5.556394
                                                         1.106151      -0.965855
                                                         0.501100      -0.267354
                                                         0.214447      -0.010443
                                                         0.074663       0.000342
                          1       3    3py               3.103254       6.695543
                                                         2.893835      -5.556394
                                                         1.106151      -0.965855
                                                         0.501100      -0.267354
                                                         0.214447      -0.010443
                                                         0.074663       0.000342
                          1       3    3pz               3.103254       6.695543
                                                         2.893835      -5.556394
                                                         1.106151      -0.965855
                                                         0.501100      -0.267354
                                                         0.214447      -0.010443
                                                         0.074663       0.000342

                          1       4    4dx2              3.103254      -0.912708
                                                         2.893835       1.052044
                                                         1.106151       0.570193
                                                         0.501100       0.198591
                                                         0.214447       0.042391
                                                         0.074663       0.002139
                          1       4    4dxy              3.103254      -1.580857
                                                         2.893835       1.822194
                                                         1.106151       0.987603
                                                         0.501100       0.343970
                                                         0.214447       0.073424
                                                         0.074663       0.003705
                          1       4    4dxz              3.103254      -1.580857
                                                         2.893835       1.822194
                                                         1.106151       0.987603
                                                         0.501100       0.343970
                                                         0.214447       0.073424
                                                         0.074663       0.003705
                          1       4    4dy2              3.103254      -0.912708
                                                         2.893835       1.052044
                                                         1.106151       0.570193
                                                         0.501100       0.198591
                                                         0.214447       0.042391
                                                         0.074663       0.002139
                          1       4    4dyz              3.103254      -1.580857
                                                         2.893835       1.822194
                                                         1.106151       0.987603
                                                         0.501100       0.343970
                                                         0.214447       0.073424
                                                         0.074663       0.003705
                          1       4    4dz2              3.103254      -0.912708
                                                         2.893835       1.052044
                                                         1.106151       0.570193
                                                         0.501100       0.198591
                                                         0.214447       0.042391
                                                         0.074663       0.002139

     RI Auxiliary Basis Set                                                   RI

       Number of orbital shell sets:                                          16
       Number of orbital shells:                                              16
       Number of primitive Cartesian functions:                               16
       Number of Cartesian basis functions:                                   88
       Number of spherical basis functions:                                   66
       Norm type:                                                              2

       Normalised Cartesian orbitals:

                        Set   Shell   Orbital            Exponent    Coefficient

                          1       1    1s                0.240000       0.244382

                          2       1    1px               0.250000       0.251979
                          2       1    1py               0.250000       0.251979
                          2       1    1pz               0.250000       0.251979

                          3       1    1fx3              0.253210       0.066956
                          3       1    1fx2y             0.253210       0.149717
                          3       1    1fx2z             0.253210       0.149717
                          3       1    1fxy2             0.253210       0.149717
                          3       1    1fxyz             0.253210       0.259318
                          3       1    1fxz2             0.253210       0.149717
                          3       1    1fy3              0.253210       0.066956
                          3       1    1fy2z             0.253210       0.149717
                          3       1    1fyz2             0.253210       0.149717
                          3       1    1fz3              0.253210       0.066956

                          4       1    1dx2              0.304020       0.204875
                          4       1    1dxy              0.304020       0.354853
                          4       1    1dxz              0.304020       0.354853
                          4       1    1dy2              0.304020       0.204875
                          4       1    1dyz              0.304020       0.354853
                          4       1    1dz2              0.304020       0.204875

                          5       1    1gx4              0.365030       0.069637
                          5       1    1gx3y             0.365030       0.184242
                          5       1    1gx3z             0.365030       0.184242
                          5       1    1gx2y2            0.365030       0.237855
                          5       1    1gx2yz            0.365030       0.411977
                          5       1    1gx2z2            0.365030       0.237855
                          5       1    1gxy3             0.365030       0.184242
                          5       1    1gxy2z            0.365030       0.411977
                          5       1    1gxyz2            0.365030       0.411977
                          5       1    1gxz3             0.365030       0.184242
                          5       1    1gy4              0.365030       0.069637
                          5       1    1gy3z             0.365030       0.184242
                          5       1    1gy2z2            0.365030       0.237855
                          5       1    1gyz3             0.365030       0.184242
                          5       1    1gz4              0.365030       0.069637

                          6       1    1s                0.424630       0.374902

                          7       1    1s                0.648980       0.515328

                          8       1    1dx2              0.719090       0.924230
                          8       1    1dxy              0.719090       1.600814
                          8       1    1dxz              0.719090       1.600814
                          8       1    1dy2              0.719090       0.924230
                          8       1    1dyz              0.719090       1.600814
                          8       1    1dz2              0.719090       0.924230

                          9       1    1gx4              0.914480       0.870291
                          9       1    1gx3y             0.914480       2.302574
                          9       1    1gx3z             0.914480       2.302574
                          9       1    1gx2y2            0.914480       2.972610
                          9       1    1gx2yz            0.914480       5.148711
                          9       1    1gx2z2            0.914480       2.972610
                          9       1    1gxy3             0.914480       2.302574
                          9       1    1gxy2z            0.914480       5.148711
                          9       1    1gxyz2            0.914480       5.148711
                          9       1    1gxz3             0.914480       2.302574
                          9       1    1gy4              0.914480       0.870291
                          9       1    1gy3z             0.914480       2.302574
                          9       1    1gy2z2            0.914480       2.972610
                          9       1    1gyz3             0.914480       2.302574
                          9       1    1gz4              0.914480       0.870291

                         10       1    1px               0.967490       1.367723
                         10       1    1py               0.967490       1.367723
                         10       1    1pz               0.967490       1.367723

                         11       1    1dx2              1.179750       2.198072
                         11       1    1dxy              1.179750       3.807173
                         11       1    1dxz              1.179750       3.807173
                         11       1    1dy2              1.179750       2.198072
                         11       1    1dyz              1.179750       3.807173
                         11       1    1dz2              1.179750       2.198072

                         12       1    1fx3              1.281070       2.570357
                         12       1    1fx2y             1.281070       5.747492
                         12       1    1fx2z             1.281070       5.747492
                         12       1    1fxy2             1.281070       5.747492
                         12       1    1fxyz             1.281070       9.954948
                         12       1    1fxz2             1.281070       5.747492
                         12       1    1fy3              1.281070       2.570357
                         12       1    1fy2z             1.281070       5.747492
                         12       1    1fyz2             1.281070       5.747492
                         12       1    1fz3              1.281070       2.570357

                         13       1    1s                1.466370       0.949714

                         14       1    1px               1.939290       3.262072
                         14       1    1py               1.939290       3.262072
                         14       1    1pz               1.939290       3.262072

                         15       1    1s                2.101910       1.244144

                         16       1    1dx2              2.484170       8.090526
                         16       1    1dxy              2.484170      14.013202
                         16       1    1dxz              2.484170      14.013202
                         16       1    1dy2              2.484170       8.090526
                         16       1    1dyz              2.484170      14.013202
                         16       1    1dz2              2.484170       8.090526

       Atomic covalent radius [Angstrom]:                                  1.300

       Atomic van der Waals radius [Angstrom]:                             1.670

     GTH Potential information for                                   GTH-PBE-q14

       Description:                       Goedecker-Teter-Hutter pseudopotential
                                           Goedecker et al., PRB 54, 1703 (1996)
                                          Hartwigsen et al., PRB 58, 3641 (1998)
                                                      Krack, TCA 114, 145 (2005)

       Gaussian exponent of the core charge distribution:               1.714678
       Electronic configuration (s p d ...):                           4   6   4

       Parameters of the local part of the GTH pseudopotential:

                          rloc        C1          C2          C3          C4
                        0.540000   13.414811   -2.213456

       Parameters of the non-local part of the GTH (SOC) pseudopotential:

                   l      r(l)      h(i,j,l)
                                    k(i,j,l)
                   0    0.397028   -4.141211    3.835423    2.233179
                                    3.835423   -1.319244   -5.766044
                                    2.233179   -5.766044    4.576656
                   1    0.353531   -7.456236    8.112326    0.000000
                                    8.112326   -9.598634    0.000000
                                    0.000000    0.000000    0.000000
                                    1.424856   -0.047910   -0.233482
                                   -0.047910   -0.332024    0.552519
                                   -0.233482    0.552519   -0.392678
                   2    0.412107   -0.954661   -1.067446
                                   -1.067446    1.210370
                                    0.070160    0.013189
                                    0.013189   -0.014954

  2. Atomic kind: S                                     Number of atoms:       2

     Orbital Basis Set                                            SZV-MOLOPT-GTH

       Number of orbital shell sets:                                           1
       Number of orbital shells:                                               2
       Number of primitive Cartesian functions:                                6
       Number of Cartesian basis functions:                                    4
       Number of spherical basis functions:                                    4
       Norm type:                                                              2

       Normalised Cartesian orbitals:

                        Set   Shell   Orbital            Exponent    Coefficient

                          1       1    2s                3.817591       0.157264
                                                         2.362752      -0.510082
                                                         0.861004      -0.067545
                                                         0.417525       0.341507
                                                         0.181514       0.065073
                                                         0.070571       0.000166

                          1       2    3px               3.817591      -0.172386
                                                         2.362752      -0.175607
                                                         0.861004       0.224215
                                                         0.417525       0.286358
                                                         0.181514       0.049699
                                                         0.070571       0.001588
                          1       2    3py               3.817591      -0.172386
                                                         2.362752      -0.175607
                                                         0.861004       0.224215
                                                         0.417525       0.286358
                                                         0.181514       0.049699
                                                         0.070571       0.001588
                          1       2    3pz               3.817591      -0.172386
                                                         2.362752      -0.175607
                                                         0.861004       0.224215
                                                         0.417525       0.286358
                                                         0.181514       0.049699
                                                         0.070571       0.001588

     RI Auxiliary Basis Set                                                   RI

       Number of orbital shell sets:                                          12
       Number of orbital shells:                                              12
       Number of primitive Cartesian functions:                               12
       Number of Cartesian basis functions:                                   44
       Number of spherical basis functions:                                   38
       Norm type:                                                              2

       Normalised Cartesian orbitals:

                        Set   Shell   Orbital            Exponent    Coefficient

                          1       1    1s                0.250000       0.251979

                          2       1    1px               0.250000       0.251979
                          2       1    1py               0.250000       0.251979
                          2       1    1pz               0.250000       0.251979

                          3       1    1dx2              0.250000       0.145480
                          3       1    1dxy              0.250000       0.251979
                          3       1    1dxz              0.250000       0.251979
                          3       1    1dy2              0.250000       0.145480
                          3       1    1dyz              0.250000       0.251979
                          3       1    1dz2              0.250000       0.145480

                          4       1    1s                0.389135       0.351144

                          5       1    1dx2              0.603367       0.679871
                          5       1    1dxy              0.603367       1.177572
                          5       1    1dxz              0.603367       1.177572
                          5       1    1dy2              0.603367       0.679871
                          5       1    1dyz              0.603367       1.177572
                          5       1    1dz2              0.603367       0.679871

                          6       1    1px               0.631252       0.802035
                          6       1    1py               0.631252       0.802035
                          6       1    1pz               0.631252       0.802035

                          7       1    1fx3              0.711060       0.683508
                          7       1    1fx2y             0.711060       1.528371
                          7       1    1fx2z             0.711060       1.528371
                          7       1    1fxy2             0.711060       1.528371
                          7       1    1fxyz             0.711060       2.647216
                          7       1    1fxz2             0.711060       1.528371
                          7       1    1fy3              0.711060       0.683508
                          7       1    1fy2z             0.711060       1.528371
                          7       1    1fyz2             0.711060       1.528371
                          7       1    1fz3              0.711060       0.683508

                          8       1    1s                0.936032       0.678232

                          9       1    1dx2              1.115385       1.992520
                          9       1    1dxy              1.115385       3.451146
[...]
 build_2c_coulomb_matrix_kp_sma       2  9.0    2.687    3.118 1893.894 1893.938
 build_2c_coulomb_matrix_kp_sma  655360 10.0 1436.954 1511.781 1436.954 1511.781
 mp_sync                        ******* 12.2  790.646 1085.881  790.646 1085.881
 compute_Sigma_c                      1  7.0    0.001    0.002 1060.769 1060.798
 dbt_total                      3319709  9.6    3.006    5.286  487.296  883.394
 dbt_contract                   1344888 10.3    6.367   11.587  437.728  795.864
 copy_dbcsr_to_fm                286697  8.0    1.553    1.751  767.607  769.305
 dbcsr_complete_redistribute     508704  9.6    9.910   13.782  692.041  748.412
 compute_chi                          1  7.0    0.011    0.035  748.163  748.247
 scf_env_do_scf                       1  3.0    0.001    0.003  738.628  738.637
 scf_env_do_scf_inner_loop           74  4.0    0.009    0.013  738.627  738.635
 qs_scf_new_mos_kp                   74  5.0    0.000    0.001  730.552  730.603
 do_general_diag_kp                  74  6.0    0.363    0.384  730.552  730.602
 dbt_tas_multiply               1629052 12.9    0.788    1.489  395.805  728.962
 dbt_tas_total                  1629052 13.9   33.357   61.696  395.304  728.074
 dbcsr_desymmetrize_deep         452313  8.3    4.593    5.407  605.779  607.691
 mp_alltoall_d11v               2883051 10.4  487.451  489.256  487.451  489.256
 G_occ_vir                          121  8.0    0.268    0.307  478.723  479.812
 mp_alltoall_i11v               1978425 10.3  474.098  474.197  474.098  474.197
 fm_to_local_tensor              146072  9.0    2.364    2.646  390.294  390.315
 copy_fm_to_dbcsr                222007  9.3    0.505    0.527  317.068  373.137
 parallel_gemm_cfm               280952  8.9    0.159    0.194  346.918  351.571
 parallel_gemm_cfm_cosma         280952  9.9  346.758  351.409  346.758  351.409
 local_dbt_to_global_fm              91  8.0    0.147    0.164  301.308  301.331
 dbt_tas_estimate_result_nze     814526 13.4   17.388   33.589  161.771  299.284
 mp_alltoall_i22                 961017 10.0  230.873  286.368  230.873  286.368
 contract_to_Sigma                   86  8.0    4.180    5.283  159.132  285.397
 contract_M_occ_vir_to_chi           48  8.0    7.511    9.848   93.915  244.247
 add_V_L                         327680 10.0    3.675  236.168    3.675  236.168
 hybrid_alltoall_any             452313  9.3    1.260    1.369  226.821  227.406
 contract_W                          45  8.0    1.360    2.273  151.670  224.892
 compute_QP_energies                  1  7.0    0.049    0.075  207.965  207.991
 trafo_to_k_and_nn                71492  8.0    0.205    0.254  207.834  207.865
 reshape_mm_small               1629052 14.9   54.269  105.791  101.504  183.992
 G_times_3c                        9072  8.0    1.784    2.833  110.210  169.576
 dbt_tas_dbm                    1629052 14.9    0.698    1.248   85.087  165.770
 contract_to_Sigma_3c_x_G        267543  9.0    0.219    0.342  104.175  164.318
 dbm_multiply                   1629052 16.9   83.598  163.023   83.598  163.023
 global_matrix_to_local_matrix   146072 10.0    2.203    3.178  141.977  161.115
 fm_to_local_array                  934  8.1   38.518   40.114  136.663  136.850
 mp_sum_dm                       655433 10.0  117.617  132.726  117.617  132.726
 kpoint_density_transform            74  7.0    0.113    0.119  119.478  119.491
 fm_MWM_R_t_to_local_tensor_W_R      30  8.0    0.020    0.023  119.464  119.473
 get_V_tr_R                          34  9.0    0.083    0.090  118.455  118.531
 contract_to_Sigma_contract        8127  9.0    1.497    2.188   49.203  114.489
 mult_W_with_Minv                    30  8.0    0.482    0.496  113.920  113.988
 mp_waitall_1                   1593830 11.1   83.583  104.389   83.583  104.389
 send_data                       146072 11.0    0.093    0.103   84.285  103.952
 communicate_buffer              146072 12.0    1.665   20.002   84.192  103.860
 dbt_tas_create_split           4907680 15.8    1.606    2.897   56.982  102.448
 mp_sum_dm3                        1069  9.0   98.453  100.181   98.453  100.181
 dbt_tas_create_split_rows_or_c 4907680 16.8    5.803   10.581   55.376   99.551
 dbt_copy                       2100375 10.9    5.062    8.701   53.067   92.176
 reshape_mm_compatible          1629052 14.9    7.468   13.894   51.066   92.095
 add_rs_to_ikp                  *******  9.9   88.438   91.789   88.438   91.789
 trafo_rs_to_ikp                   5368  8.1    2.193    2.390   81.050   84.455
 dbt_tas_mm_2                    644724 15.9    0.229    0.611   29.804   80.857
 add_ikp_to_rs                  ******* 10.0   75.023   79.996   75.023   79.996
 dbt_tas_distribution_new       4052474 15.3   23.220   38.259   44.854   74.258
 mp_cart_create                 8306816 16.0   49.043   66.778   51.646   71.245
 add_ikp_to_all_rs                 4924  8.0    1.942    2.269   60.297   64.870
 change_split                   2192470 15.4    2.445    4.640   33.177   62.616
 cp_fm_start_copy_general        227328  7.3    0.959    1.740   60.960   61.079
 dbt_tas_reshape                1880160 15.4    4.905    8.417   35.059   60.794
 dbt_reshape                    1267590 11.7   24.319   42.598   34.179   59.666
 dbt_tas_mm_3T                   610646 16.1    0.230    0.354   36.713   56.356
 local_dbt_to_global_mat          87451  9.0    0.298    0.314   47.451   56.009
 fm_add_ikp_to_rs                123904  9.0   35.642   38.484   52.323   55.574
 rsmat_to_kp                       7032  7.2    0.050    0.053   54.247   54.356
 mp_allgather_i                  454656  8.3   53.810   54.336   53.810   54.336
 dbt_tas_replicate              1629052 14.9   14.469   22.911   29.387   49.224
 compute_Sigma_x                      1  7.0    0.002    0.002   46.275   46.308
 mp_cart_sub                     573473 10.0   43.316   43.399   43.316   43.399
 get_t_3c_int                    922014  9.3    1.576    2.470   27.391   42.366
 mp_sum_i                       1524022 15.3   40.049   40.401   40.049   40.401
 send_sizes_1                    146072 11.0    0.084    0.094   39.131   39.569
 dos_pdos_ldos                        1  5.0    0.004    0.005   36.878   37.678
 create_and_init_bs_env_for_gw        1  6.0    0.004    0.007   36.870   36.902
 dbt_remap                       125554 11.0    8.319   12.065   22.857   33.503
 power                            10204  8.0    2.307    2.502   31.824   32.593
 mp_comm_dup                    4093158 18.3   16.733   30.332   17.897   32.421
 fm_trafo_rs_to_ikp               71492  9.0   20.853   22.121   30.435   32.091
 get_data                        146072 11.0    4.920   30.871    5.136   31.119
 diag_complex                     10204  9.0   29.517   30.091   29.517   30.091
 SOC_ev                            2344  6.0    0.012    0.014   29.484   29.541
 soc                                  1  5.0    0.000    0.000   27.513   27.513
 H_KS_spinor_kp                       1  6.0    0.007    0.008   27.498   27.501
 dbt_tas_mm_1N                   373682 15.5    0.127    0.198   17.722   27.411
 convert_to_new_pgrid           4887156 14.9    4.998    9.484   13.368   25.671
 create_and_init_bs_env               1  5.0    0.001    0.002   24.815   24.818
 compute_cfm_mo_coeff_kp_and_ei       1  6.0    0.002    0.003   24.803   24.803
 mp_comm_free                   ******* 14.9   14.144   23.341   14.144   23.341
 dbm_reserve_blocks             7402666 16.4   13.484   23.290   13.484   23.290
 dbt_tas_reserve_blocks_index   5773614 15.6    2.389    4.082   13.637   22.997
 dbcsr_finalize                 1939943 10.9    3.680    4.191   19.262   22.739
 local_matrix_to_global_matrix    87451 10.0    0.162    0.173   13.728   22.591
 mp_comm_split_direct           4907684 17.8   11.611   20.784   12.440   22.288
 dbt_tas_reshape_buffer_fill    1880160 16.4   13.045   22.174   13.045   22.174
 mp_sum_dv                        78751  8.9   16.285   20.778   16.285   20.778
 cp_cfm_heevd                      4836  7.5    0.003    0.003   19.819   19.974
 cp_cfm_heevd_base                 4836  8.5   19.816   19.971   19.816   19.971
 dbt_tas_reshape_buffer_obtain  1880160 16.4    7.569   13.059   11.461   19.655
 dbt_permute_index              3585614 12.1    8.577   15.374    9.746   17.585
 dbt_tas_merge                   644724 14.9    4.493   12.725    5.990   16.837
 dbt_distribution_new_expert     543262 11.9    2.417    2.866   14.211   16.774
 dbt_tas_create_new             6224421 15.1    9.135   16.598    9.135   16.598
 dbm_copy                       3258104 15.9    8.370   16.187    8.370   16.187
 compute_3c_integrals                 1  7.0    0.033    0.041   15.966   15.976
 dbt_create_matrix               146072 10.0    0.833    0.867   14.897   15.855
 build_3c_integrals                   1  8.0   13.957   14.905   14.806   15.769
 mp_alltoall_i                  6277918 15.1   13.285   14.696   13.285   14.696
 dbt_align_index                2443578 11.4    1.288    2.386    7.683   14.050
 get_Minv_Vtr_Minv_R                  1  8.0    0.021    0.023   13.142   13.152
 reshape_mm_template             251108 15.5    5.893    8.582    8.974   13.074
 trafo_V_xc_R_to_kp                   1  7.0    0.004    0.005   12.824   12.831
 dbt_tas_reserve_blocks_templat 2242818 14.0    2.230    3.870    7.112   11.823
 dbcsr_merge_all                 736700 11.7    7.391    8.850    9.931   11.694
 dbcsr_filter_anytype            658353 11.0    1.496    1.556    8.146   11.605
 dbt_destroy                    6211139 10.1    8.847   10.449    9.735   11.518
 dbt_tas_mp_comm                 940080 13.0    0.763    1.359    6.434   11.484
 dbt_tas_copy                    613766 12.2    4.583    6.644    7.433   10.571
 add_R                          *******  9.3    6.729    7.644    9.376   10.542
 dbt_reserve_blocks_index       1650636 13.4    0.928    1.549    6.043   10.328
 dbt_reserve_blocks_index_array 1486609 12.8    0.595    1.060    5.398   10.107
 dbt_create_3c_R1_R2                 62  8.0    1.937    2.156    8.913    9.384
 destroy_t_2d                        62  8.0    2.031    2.546    7.493    9.103
 dbt_create_new                  271631 11.4    1.521    1.842    7.533    8.941
 set_blocks                       87451 11.0    1.922    3.920    3.954    8.368
 mp_cart_get                    ******* 15.9    4.562    8.146    4.562    8.146
 dbt_create_template            2353894  9.0    7.476    7.904    7.476    7.904
 dbm_add                        1629052 14.9    4.408    7.858    4.408    7.858
 dbt_communicate_buffer         1267590 12.7    4.476    7.804    4.476    7.804
 dbt_copy_nocomm                 219019 11.0    1.721    5.071    2.618    7.607
 mp_isend_dv                    ******* 12.2    0.387    7.601    0.387    7.601
 send_sizes_2                    146072 11.0    0.080    0.087    7.282    7.543
 mp_comm_size                   ******* 16.1    4.082    7.425    4.082    7.425
 mp_isend_im2                   ******* 13.0    0.262    7.291    0.262    7.291
 compute_proj_mo_on_kind           1172  6.0    0.013    0.016    7.157    7.241
 cp_cfm_geeig_canon                1172  7.0    0.004    0.005    6.540    6.547
 is_cell_in_index_to_cell       *******  9.7    4.694    6.234    4.694    6.234
 dbt_pgrid_create_expert         543265 12.9    0.534    0.667    4.852    6.166
 dbt_tas_communicate_buffer     3509212 17.2    2.838    6.148    2.838    6.148
 mp_comm_rank                   ******* 16.1    3.140    5.693    3.140    5.693
 dbm_filter                     2560605 14.7    2.944    5.565    2.944    5.565
 heuristic_RI_regularization          1  7.0    0.000    0.001    5.476    5.478
 dbcsr_create_new               1667355  9.8    3.661    4.254    4.586    5.412
 rskp_transform                   82808  7.1    0.131    5.305    0.131    5.305
 dbcsr_work_create              1189013 10.2    3.176    3.717    4.567    5.206
 comm_size                        87451 11.0    0.077    0.089    4.852    5.129
 dbt_nd_mp_comm                  271626 11.4    0.310    0.377    3.846    4.949
 dbt_tas_reshape_communicate_bu 1880160 16.4    0.613    1.215    2.417    4.930
 comm_data                        87451 11.0    0.169    0.946    1.214    4.727
 dbcsr_iterator_start           4224853 10.8    3.782    3.893    4.549    4.679
 mp_bcast_iv                     909355  8.3    4.191    4.418    4.191    4.418
 copy_fm_to_dbcsr_bc             222007 10.3    1.024    1.061    3.612    3.783
 dbcsr_work_destroy_all         1189013 11.1    2.224    2.630    3.198    3.735
 mp_waitall_2                    174902 12.0    0.986    3.475    0.986    3.475
 mp_sum_l                       9479385 15.0    1.698    3.286    1.698    3.286
 dbcsr_data_release             ******* 11.7    2.911    3.243    2.911    3.243
 fill_buffer                      87451 11.0    2.390    3.112    2.515    3.243
 dbt_tas_reshape_get_coord      1880160 16.4    1.777    3.225    1.777    3.225
 qs_ks_update_qs_env                 74  5.0    0.000    0.000    3.138    3.185
 dbm_scale                      2115166 14.4    1.641    3.125    1.641    3.125
 dbcsr_iterator_stop            4224853 10.8    2.178    2.366    2.719    2.920
 qs_ks_build_kohn_sham_matrix        77  7.0    0.019    0.030    2.772    2.820
 dbcsr_data_new                 ******* 11.1    2.603    2.736    2.603    2.736
 rebuild_ks_matrix                   74  6.0    0.000    0.000    2.666    2.712
 dbcsr_destroy                  1555418  9.6    1.312    1.364    2.566    2.653
 dbt_copy_matrix_to_tensor       146072 10.0    0.850    0.900    2.544    2.640
 dbt_reserve_blocks_template     219019 12.0    0.154    0.462    0.897    2.536
 dbt_create_2c_R                     98  8.0    1.208    2.197    1.518    2.510
 reserve_blocks                  146072 11.0    0.352    0.381    2.331    2.503
 transform_dmat                   37888  8.0    0.056    2.437    0.056    2.437
 write_kpoints_restart               74  5.0    0.002    0.183    2.213    2.240
 dbt_tas_replicate_communicate_  984328 15.9    0.383    0.600    1.141    2.214
 qs_rho_update_rho_low               75  5.0    0.001    0.001    2.127    2.131
 transfer_rs2pw                     379  8.4    0.002    0.003    2.020    2.129
 calculate_rho_elec                  75  6.0    0.002    0.003    2.125    2.127
 transfer_pw2rs                     386 10.6    0.002    0.003    2.012    2.088
 build_2c_integrals                  34 10.0    0.055    1.004    0.133    2.038
 sum_up_and_integrate                77  8.0    0.002    0.007    0.601    1.993
 integrate_v_rspace                  77  9.0    0.001    0.005    0.598    1.993
 transfer_rs2pw_250                 154 10.0    0.136    0.157    1.860    1.989
 mp_sendrecv_dv                   96645 10.4    1.841    1.952    1.841    1.952
 mp_bcast_im                     454656  8.3    1.721    1.926    1.721    1.926
 transfer_pw2rs_250                 155 11.0    0.126    0.144    1.814    1.890
 density_rs2pw                       75  7.0    0.002    0.008    1.824    1.863
 dbt_tas_reshape_alltoall       1880160 16.4    0.562    1.008    1.050    1.832
 dbcsr_reserve_blocks            592389 12.2    1.018    1.428    1.276    1.769
 tree_to_linear_d                587981 12.6    1.521    1.689    1.521    1.689
 integrate_vhg0_rspace               77  8.0    0.001    0.001    1.590    1.660
 dbcsr_set                      1575369 10.4    0.747    0.801    1.421    1.600
 copy_dbcsr_to_fm_bc             286697  9.0    0.711    0.768    1.526    1.578
 mp_bcast_i                     4908183 17.8    0.806    1.546    0.806    1.546
 dbt_distribution_destroy        543262 11.9    0.984    1.208    1.238    1.509
 quick_finalize                  452313 10.3    0.659    0.837    1.081    1.433
 dbt_reserve_blocks_matrix_to_t  146072 11.0    0.401    0.437    1.358    1.415
 grid_integrate_task_list            77 10.0    0.024    1.415    0.024    1.415
 mp_cart_rank                   3938160 15.9    0.899    1.411    0.899    1.411
 grid_collocate_task_list            75  7.0    0.294    1.406    0.294    1.406
 dbt_tas_merge_communicate_buff  644724 15.9    0.144    0.388    0.420    1.374
 mp_dims_create                 4052471 14.0    0.788    1.334    0.788    1.334
 get_coord                        87451 11.0    0.600    0.686    1.030    1.322
 fill_mat_local                  146072 11.0    0.879    1.063    1.053    1.235
 write_SOC_eigenvalues              148  6.0    0.005    1.228    0.005    1.228
 dbcsr_reserve_all_blocks        309458 11.5    0.246    0.260    0.810    1.132
 dbcsr_copy                      187872 10.1    0.352    0.484    0.893    1.095
 dbt_copy_tensor_to_matrix        87451 10.0    0.288    0.386    0.906    1.046
 analyt_conti_and_print            1172  8.0    0.006    0.971    0.046    1.008
 dbt_buffer_get_index           3509212 16.7    0.485    0.964    0.485    0.964
 dbcsr_iterator_seek            4224853 11.8    0.767    0.892    0.767    0.892
 dbcsr_distribution_new          508743 10.0    0.682    0.859    0.682    0.859
 dbt_tas_replicate_alltoall      984328 15.9    0.324    0.519    0.554    0.856
 dbcsr_zero                     1575369 11.4    0.675    0.852    0.675    0.852
 dbcsr_make_index_exist         1667355 10.8    0.593    0.848    0.593    0.848
 mp_sum_iv                         2368  9.0    0.525    0.836    0.525    0.836
 restraint_control                    1  2.0    0.000    0.000    0.794    0.810
 setup_parallelization_Delta_R        1  7.0    0.000    0.000    0.809    0.809
 compute_n_tensor_ops_Delta_R         1  8.0    0.160    0.363    0.806    0.806
 compute_V_xc                         1  7.0    0.000    0.000    0.804    0.805
 write_dos_pdos                       4  6.0    0.003    0.792    0.003    0.792
 setup_cells_3c                       1  7.0    0.012    0.013    0.780    0.785
 build_3c_integral_block           2571  8.0    0.197    0.426    0.581    0.764
 ab_contract                    1233408 11.0    0.015    0.760    0.015    0.760
 mp_max_i                       2690239 11.3    0.408    0.747    0.408    0.747
 add_cfm_submat                   11720  7.0    0.044    0.047    0.513    0.746
 dbt_tas_merge_alltoall          644724 15.9    0.147    0.402    0.261    0.720
 dbcsr_sort_indices             1194336 12.6    0.361    0.713    0.361    0.713
 alloc_block_3c                       1  9.0    0.159    0.176    0.681    0.711
 local_array_to_fm                  901  8.0    0.228    0.702    0.228    0.702
 cp_fm_to_fm_submat               23440  8.0    0.453    0.685    0.453    0.685
 add_to_DOS_PDOS                   4688  6.5    0.634    0.682    0.634    0.682
 fft_wrap_pw1pw2                   1443 10.1    0.005    0.006    0.650    0.672
 potential_pw2rs                     77 10.0    0.001    0.001    0.573    0.578
 mp_irecv_im2                   2764383 13.0    0.244    0.568    0.244    0.568
 get_sizes                       146072 11.0    0.347    0.388    0.509    0.560
 cp_fm_write_unformatted            636  6.0    0.504    0.552    0.505    0.558
 dbcsr_copy_into_existing         75935 10.0    0.204    0.310    0.420    0.532
 -------------------------------------------------------------------------------

 The number of warnings for this run is : 1
 
 -------------------------------------------------------------------------------
  **** **** ******  **  PROGRAM ENDED AT                 2025-07-10 17:05:13.446
 ***** ** ***  *** **   PROGRAM RAN ON                                  n2cn1065
 **    ****   ******    PROGRAM RAN BY                                  metdyn02
 ***** **    ** ** **   PROGRAM PROCESS ID                               2358852
  **** **  *******  **  PROGRAM STOPPED IN /scratch/hpc-prf-metdyn/metdyn02_Remi
                                           /05_TMD_new/3_WS2__/SZVnonaug
