 DBCSR| CPU Multiplication driver                                           XSMM (U)
 DBCSR| Multrec recursion limit                                              512 (U)
 DBCSR| Multiplication stack size                                           1000 (D)
 DBCSR| Maximum elements for images                                    UNLIMITED (U)
 DBCSR| Multiplicative factor virtual images                                   1 (U)
 DBCSR| Use multiplication densification                                       T (D)
 DBCSR| Multiplication size stacks                                             3 (U)
 DBCSR| Use memory pool for CPU allocation                                     F (U)
 DBCSR| Number of 3D layers                                               SINGLE (U)
 DBCSR| Use MPI memory allocation                                              F (U)
 DBCSR| Use RMA algorithm                                                      F (U)
 DBCSR| Use Communication thread                                               T (U)
 DBCSR| Communication thread load                                             60 (D)
 DBCSR| MPI: My process id                                                     0
 DBCSR| MPI: Number of processes                                             256
 DBCSR| OMP: Current number of threads                                         8
 DBCSR| OMP: Max number of threads                                             8
 DBCSR| Split modifier for TAS multiplication algorithm                  1.0E+00 (U)


  **** **** ******  **  PROGRAM STARTED AT               2025-07-18 17:04:49.237
 ***** ** ***  *** **   PROGRAM STARTED ON                              n2cn1149
 **    ****   ******    PROGRAM STARTED BY                              metdyn02
 ***** **    ** ** **   PROGRAM PROCESS ID                               1139839
  **** **  *******  **  PROGRAM STARTED IN /scratch/hpc-prf-metdyn/metdyn02_Remi
                                           /05_TMD_new/2_MoSe2/SZVnonaug

 CP2K| version string:                 CP2K version 2025.1 (Development Version)
 CP2K| source code revision number:                                  git:400017f
 CP2K| cp2kflags: omp libint fftw3 libxc libgrpp elpa parallel scalapack mpi_f08
 CP2K|             cosma xsmm plumed2 spglib libvori libbqb libvdwxc hdf5
 CP2K| is freely available from                            https://www.cp2k.org/
 CP2K| Program compiled at                         Thu Jun 26 12:02:16 CEST 2025
 CP2K| Program compiled on                                              n2login1
 CP2K| Program compiled for                                                local
 CP2K| Data directory path    /opt/software/pc2/EB-SW/software/CP2K/2024.1-foss-
 CP2K| Input file name                                                    GW.inp

 GLOBAL| Force Environment number                                              1
 GLOBAL| Basis set file name                                        BASIS_MOLOPT
 GLOBAL| Potential file name                                  GTH_SOC_POTENTIALS
 GLOBAL| MM Potential file name                                     MM_POTENTIAL
 GLOBAL| Coordinate file name                                      __STD_INPUT__
 GLOBAL| Method name                                                        CP2K
 GLOBAL| Project name                                                      MoSe2
 GLOBAL| Run type                                                         ENERGY
 GLOBAL| FFT library                                                       FFTW3
 GLOBAL| Diagonalization library                                            ELPA
 GLOBAL| Cholesky decomposition library                                ScaLAPACK
 GLOBAL| DGEMM library                                                      BLAS
 GLOBAL| Minimum number of eigenvectors for ELPA usage                        16
 GLOBAL| Orthonormality check for eigenvectors                          DISABLED
 GLOBAL| Matrix multiplication library                                     COSMA
 GLOBAL| All-to-all communication in single precision                          F
 GLOBAL| FFTs using library dependent lengths                                  F
 GLOBAL| Grid backend                                                       AUTO
 GLOBAL| Global print level                                               MEDIUM
 GLOBAL| MPI I/O enabled                                                       T
 GLOBAL| Total number of message passing processes                           256
 GLOBAL| Number of threads for this process                                    8
 GLOBAL| This output is from process                                           0
 GLOBAL| OpenMP stack size per thread (OMP_STACKSIZE)                    default
 GLOBAL| CPU model name                          AMD EPYC 7763 64-Core Processor
 GLOBAL| CPUID                                                              1002

 MEMORY| system memory details [Kb]
 MEMORY|                        rank 0           min           max       average
 MEMORY| MemTotal            263897540     263897540     263897632     263897592
 MEMORY| MemFree             234968704     232138880     249116412     237468942
 MEMORY| Buffers                 57720         31480        146156         92788
 MEMORY| Cached               17823592       7614432      22646168      17322745
 MEMORY| Slab                  4848492       1517472       4848492       2921050
 MEMORY| SReclaimable          2809096        326936       2809096       1062860
 MEMORY| MemLikelyFree       255659112     255301044     257181148     255947335


 *** Fundamental physical constants (SI units) ***

 *** Literature: B. J. Mohr and B. N. Taylor,
 ***             CODATA recommended values of the fundamental physical
 ***             constants: 2006, Web Version 5.1
 ***             http://physics.nist.gov/constants

 Speed of light in vacuum [m/s]                             2.99792458000000E+08
 Magnetic constant or permeability of vacuum [N/A**2]       1.25663706143592E-06
 Electric constant or permittivity of vacuum [F/m]          8.85418781762039E-12
 Planck constant (h) [J*s]                                  6.62606896000000E-34
 Planck constant (h-bar) [J*s]                              1.05457162825177E-34
 Elementary charge [C]                                      1.60217648700000E-19
 Electron mass [kg]                                         9.10938215000000E-31
 Electron g factor [ ]                                     -2.00231930436220E+00
 Proton mass [kg]                                           1.67262163700000E-27
 Fine-structure constant                                    7.29735253760000E-03
 Rydberg constant [1/m]                                     1.09737315685270E+07
 Avogadro constant [1/mol]                                  6.02214179000000E+23
 Boltzmann constant [J/K]                                   1.38065040000000E-23
 Atomic mass unit [kg]                                      1.66053878200000E-27
 Bohr radius [m]                                            5.29177208590000E-11

 *** Conversion factors ***

 [u] -> [a.u.]                                              1.82288848426455E+03
 [Angstrom] -> [Bohr] = [a.u.]                              1.88972613288564E+00
 [a.u.] = [Bohr] -> [Angstrom]                              5.29177208590000E-01
 [a.u.] -> [s]                                              2.41888432650478E-17
 [a.u.] -> [fs]                                             2.41888432650478E-02
 [a.u.] -> [J]                                              4.35974393937059E-18
 [a.u.] -> [N]                                              8.23872205491840E-08
 [a.u.] -> [K]                                              3.15774647902944E+05
 [a.u.] -> [kJ/mol]                                         2.62549961709828E+03
 [a.u.] -> [kcal/mol]                                       6.27509468713739E+02
 [a.u.] -> [Pa]                                             2.94210107994716E+13
 [a.u.] -> [bar]                                            2.94210107994716E+08
 [a.u.] -> [atm]                                            2.90362800883016E+08
 [a.u.] -> [eV]                                             2.72113838565563E+01
 [a.u.] -> [Hz]                                             6.57968392072181E+15
 [a.u.] -> [1/cm] (wave numbers)                            2.19474631370540E+05
 [a.u./Bohr**2] -> [1/cm]                                   5.14048714338585E+03
 

 CELL_TOP| Volume [angstrom^3]:                                       143.175000
 CELL_TOP| Vector a [angstrom     3.320     0.000     0.000   |a| =     3.320000
 CELL_TOP| Vector b [angstrom    -1.660     2.875     0.000   |b| =     3.319823
 CELL_TOP| Vector c [angstrom     0.000     0.000    15.000   |c| =    15.000000
 CELL_TOP| Angle (b,c), alpha [degree]:                                90.000000
 CELL_TOP| Angle (a,c), beta  [degree]:                                90.000000
 CELL_TOP| Angle (a,b), gamma [degree]:                               120.001763
 CELL_TOP| Numerically orthorhombic:                                          NO
 CELL_TOP| Periodicity                                                        XY

 GENERATE|  Preliminary Number of Bonds generated:                             0
 GENERATE|  Achieved consistency in connectivity generation.

 CELL| Volume [angstrom^3]:                                           143.175000
 CELL| Vector a [angstrom]:       3.320     0.000     0.000   |a| =     3.320000
 CELL| Vector b [angstrom]:      -1.660     2.875     0.000   |b| =     3.319823
 CELL| Vector c [angstrom]:       0.000     0.000    15.000   |c| =    15.000000
 CELL| Angle (b,c), alpha [degree]:                                    90.000000
 CELL| Angle (a,c), beta  [degree]:                                    90.000000
 CELL| Angle (a,b), gamma [degree]:                                   120.001763
 CELL| Numerically orthorhombic:                                              NO
 CELL| Periodicity                                                            XY

 CELL_REF| Volume [angstrom^3]:                                       143.175000
 CELL_REF| Vector a [angstrom     3.320     0.000     0.000   |a| =     3.320000
 CELL_REF| Vector b [angstrom    -1.660     2.875     0.000   |b| =     3.319823
 CELL_REF| Vector c [angstrom     0.000     0.000    15.000   |c| =    15.000000
 CELL_REF| Angle (b,c), alpha [degree]:                                90.000000
 CELL_REF| Angle (a,c), beta  [degree]:                                90.000000
 CELL_REF| Angle (a,b), gamma [degree]:                               120.001763
 CELL_REF| Numerically orthorhombic:                                          NO
 CELL_REF| Periodicity                                                        XY

 *******************************************************************************
                                    Kpoints
 *******************************************************************************
 BRILLOUIN| K-point scheme                                        Monkhorst-Pack
 BRILLOUIN| K-Point grid                                            32   32    1
 BRILLOUIN| Accuracy in Symmetry determination                      0.100000E-05
 BRILLOUIN| K-Point point group symmetrization                               OFF
 BRILLOUIN| Wavefunction type                                            COMPLEX
 BRILLOUIN| List of Kpoints [2 Pi/Bohr]                                      512
 BRILLOUIN| Number           Weight            X              Y              Z
 BRILLOUIN|     1           0.00195       -0.48438       -0.48438        0.00000
 BRILLOUIN|     2           0.00195       -0.48438       -0.45312        0.00000
 BRILLOUIN|     3           0.00195       -0.48438       -0.42188        0.00000
 BRILLOUIN|     4           0.00195       -0.48438       -0.39062        0.00000
 BRILLOUIN|     5           0.00195       -0.48438       -0.35938        0.00000
 BRILLOUIN|     6           0.00195       -0.48438       -0.32812        0.00000
 BRILLOUIN|     7           0.00195       -0.48438       -0.29688        0.00000
 BRILLOUIN|     8           0.00195       -0.48438       -0.26562        0.00000
 BRILLOUIN|     9           0.00195       -0.48438       -0.23438        0.00000
 BRILLOUIN|    10           0.00195       -0.48438       -0.20312        0.00000
 BRILLOUIN|    11           0.00195       -0.48438       -0.17188        0.00000
 BRILLOUIN|    12           0.00195       -0.48438       -0.14062        0.00000
 BRILLOUIN|    13           0.00195       -0.48438       -0.10938        0.00000
 BRILLOUIN|    14           0.00195       -0.48438       -0.07812        0.00000
 BRILLOUIN|    15           0.00195       -0.48438       -0.04688        0.00000
 BRILLOUIN|    16           0.00195       -0.48438       -0.01562        0.00000
 BRILLOUIN|    17           0.00195       -0.48438        0.01562        0.00000
 BRILLOUIN|    18           0.00195       -0.48438        0.04688        0.00000
 BRILLOUIN|    19           0.00195       -0.48438        0.07812        0.00000
 BRILLOUIN|    20           0.00195       -0.48438        0.10938        0.00000
 BRILLOUIN|    21           0.00195       -0.48438        0.14062        0.00000
 BRILLOUIN|    22           0.00195       -0.48438        0.17188        0.00000
 BRILLOUIN|    23           0.00195       -0.48438        0.20312        0.00000
 BRILLOUIN|    24           0.00195       -0.48438        0.23438        0.00000
 BRILLOUIN|    25           0.00195       -0.48438        0.26562        0.00000
 BRILLOUIN|    26           0.00195       -0.48438        0.29688        0.00000
 BRILLOUIN|    27           0.00195       -0.48438        0.32812        0.00000
 BRILLOUIN|    28           0.00195       -0.48438        0.35938        0.00000
 BRILLOUIN|    29           0.00195       -0.48438        0.39062        0.00000
 BRILLOUIN|    30           0.00195       -0.48438        0.42188        0.00000
 BRILLOUIN|    31           0.00195       -0.48438        0.45312        0.00000
 BRILLOUIN|    32           0.00195       -0.48438        0.48438        0.00000
 BRILLOUIN|    33           0.00195       -0.45312       -0.48438        0.00000
 BRILLOUIN|    34           0.00195       -0.45312       -0.45312        0.00000
 BRILLOUIN|    35           0.00195       -0.45312       -0.42188        0.00000
 BRILLOUIN|    36           0.00195       -0.45312       -0.39062        0.00000
 BRILLOUIN|    37           0.00195       -0.45312       -0.35938        0.00000
 BRILLOUIN|    38           0.00195       -0.45312       -0.32812        0.00000
 BRILLOUIN|    39           0.00195       -0.45312       -0.29688        0.00000
 BRILLOUIN|    40           0.00195       -0.45312       -0.26562        0.00000
 BRILLOUIN|    41           0.00195       -0.45312       -0.23438        0.00000
 BRILLOUIN|    42           0.00195       -0.45312       -0.20312        0.00000
 BRILLOUIN|    43           0.00195       -0.45312       -0.17188        0.00000
 BRILLOUIN|    44           0.00195       -0.45312       -0.14062        0.00000
 BRILLOUIN|    45           0.00195       -0.45312       -0.10938        0.00000
 BRILLOUIN|    46           0.00195       -0.45312       -0.07812        0.00000
 BRILLOUIN|    47           0.00195       -0.45312       -0.04688        0.00000
 BRILLOUIN|    48           0.00195       -0.45312       -0.01562        0.00000
 BRILLOUIN|    49           0.00195       -0.45312        0.01562        0.00000
 BRILLOUIN|    50           0.00195       -0.45312        0.04688        0.00000
 BRILLOUIN|    51           0.00195       -0.45312        0.07812        0.00000
 BRILLOUIN|    52           0.00195       -0.45312        0.10938        0.00000
 BRILLOUIN|    53           0.00195       -0.45312        0.14062        0.00000
 BRILLOUIN|    54           0.00195       -0.45312        0.17188        0.00000
 BRILLOUIN|    55           0.00195       -0.45312        0.20312        0.00000
 BRILLOUIN|    56           0.00195       -0.45312        0.23438        0.00000
 BRILLOUIN|    57           0.00195       -0.45312        0.26562        0.00000
 BRILLOUIN|    58           0.00195       -0.45312        0.29688        0.00000
 BRILLOUIN|    59           0.00195       -0.45312        0.32812        0.00000
 BRILLOUIN|    60           0.00195       -0.45312        0.35938        0.00000
 BRILLOUIN|    61           0.00195       -0.45312        0.39062        0.00000
 BRILLOUIN|    62           0.00195       -0.45312        0.42188        0.00000
 BRILLOUIN|    63           0.00195       -0.45312        0.45312        0.00000
 BRILLOUIN|    64           0.00195       -0.45312        0.48438        0.00000
 BRILLOUIN|    65           0.00195       -0.42188       -0.48438        0.00000
 BRILLOUIN|    66           0.00195       -0.42188       -0.45312        0.00000
 BRILLOUIN|    67           0.00195       -0.42188       -0.42188        0.00000
 BRILLOUIN|    68           0.00195       -0.42188       -0.39062        0.00000
 BRILLOUIN|    69           0.00195       -0.42188       -0.35938        0.00000
 BRILLOUIN|    70           0.00195       -0.42188       -0.32812        0.00000
 BRILLOUIN|    71           0.00195       -0.42188       -0.29688        0.00000
 BRILLOUIN|    72           0.00195       -0.42188       -0.26562        0.00000
 BRILLOUIN|    73           0.00195       -0.42188       -0.23438        0.00000
 BRILLOUIN|    74           0.00195       -0.42188       -0.20312        0.00000
 BRILLOUIN|    75           0.00195       -0.42188       -0.17188        0.00000
 BRILLOUIN|    76           0.00195       -0.42188       -0.14062        0.00000
 BRILLOUIN|    77           0.00195       -0.42188       -0.10938        0.00000
 BRILLOUIN|    78           0.00195       -0.42188       -0.07812        0.00000
 BRILLOUIN|    79           0.00195       -0.42188       -0.04688        0.00000
 BRILLOUIN|    80           0.00195       -0.42188       -0.01562        0.00000
 BRILLOUIN|    81           0.00195       -0.42188        0.01562        0.00000
 BRILLOUIN|    82           0.00195       -0.42188        0.04688        0.00000
 BRILLOUIN|    83           0.00195       -0.42188        0.07812        0.00000
 BRILLOUIN|    84           0.00195       -0.42188        0.10938        0.00000
 BRILLOUIN|    85           0.00195       -0.42188        0.14062        0.00000
 BRILLOUIN|    86           0.00195       -0.42188        0.17188        0.00000
 BRILLOUIN|    87           0.00195       -0.42188        0.20312        0.00000
 BRILLOUIN|    88           0.00195       -0.42188        0.23438        0.00000
 BRILLOUIN|    89           0.00195       -0.42188        0.26562        0.00000
 BRILLOUIN|    90           0.00195       -0.42188        0.29688        0.00000
 BRILLOUIN|    91           0.00195       -0.42188        0.32812        0.00000
 BRILLOUIN|    92           0.00195       -0.42188        0.35938        0.00000
 BRILLOUIN|    93           0.00195       -0.42188        0.39062        0.00000
 BRILLOUIN|    94           0.00195       -0.42188        0.42188        0.00000
 BRILLOUIN|    95           0.00195       -0.42188        0.45312        0.00000
 BRILLOUIN|    96           0.00195       -0.42188        0.48438        0.00000
 BRILLOUIN|    97           0.00195       -0.39062       -0.48438        0.00000
 BRILLOUIN|    98           0.00195       -0.39062       -0.45312        0.00000
 BRILLOUIN|    99           0.00195       -0.39062       -0.42188        0.00000
 BRILLOUIN|   100           0.00195       -0.39062       -0.39062        0.00000
 BRILLOUIN|   101           0.00195       -0.39062       -0.35938        0.00000
 BRILLOUIN|   102           0.00195       -0.39062       -0.32812        0.00000
 BRILLOUIN|   103           0.00195       -0.39062       -0.29688        0.00000
 BRILLOUIN|   104           0.00195       -0.39062       -0.26562        0.00000
 BRILLOUIN|   105           0.00195       -0.39062       -0.23438        0.00000
 BRILLOUIN|   106           0.00195       -0.39062       -0.20312        0.00000
 BRILLOUIN|   107           0.00195       -0.39062       -0.17188        0.00000
 BRILLOUIN|   108           0.00195       -0.39062       -0.14062        0.00000
 BRILLOUIN|   109           0.00195       -0.39062       -0.10938        0.00000
 BRILLOUIN|   110           0.00195       -0.39062       -0.07812        0.00000
 BRILLOUIN|   111           0.00195       -0.39062       -0.04688        0.00000
 BRILLOUIN|   112           0.00195       -0.39062       -0.01562        0.00000
 BRILLOUIN|   113           0.00195       -0.39062        0.01562        0.00000
 BRILLOUIN|   114           0.00195       -0.39062        0.04688        0.00000
 BRILLOUIN|   115           0.00195       -0.39062        0.07812        0.00000
 BRILLOUIN|   116           0.00195       -0.39062        0.10938        0.00000
 BRILLOUIN|   117           0.00195       -0.39062        0.14062        0.00000
 BRILLOUIN|   118           0.00195       -0.39062        0.17188        0.00000
 BRILLOUIN|   119           0.00195       -0.39062        0.20312        0.00000
 BRILLOUIN|   120           0.00195       -0.39062        0.23438        0.00000
 BRILLOUIN|   121           0.00195       -0.39062        0.26562        0.00000
 BRILLOUIN|   122           0.00195       -0.39062        0.29688        0.00000
 BRILLOUIN|   123           0.00195       -0.39062        0.32812        0.00000
 BRILLOUIN|   124           0.00195       -0.39062        0.35938        0.00000
 BRILLOUIN|   125           0.00195       -0.39062        0.39062        0.00000
 BRILLOUIN|   126           0.00195       -0.39062        0.42188        0.00000
 BRILLOUIN|   127           0.00195       -0.39062        0.45312        0.00000
 BRILLOUIN|   128           0.00195       -0.39062        0.48438        0.00000
 BRILLOUIN|   129           0.00195       -0.35938       -0.48438        0.00000
 BRILLOUIN|   130           0.00195       -0.35938       -0.45312        0.00000
 BRILLOUIN|   131           0.00195       -0.35938       -0.42188        0.00000
 BRILLOUIN|   132           0.00195       -0.35938       -0.39062        0.00000
 BRILLOUIN|   133           0.00195       -0.35938       -0.35938        0.00000
 BRILLOUIN|   134           0.00195       -0.35938       -0.32812        0.00000
 BRILLOUIN|   135           0.00195       -0.35938       -0.29688        0.00000
 BRILLOUIN|   136           0.00195       -0.35938       -0.26562        0.00000
 BRILLOUIN|   137           0.00195       -0.35938       -0.23438        0.00000
 BRILLOUIN|   138           0.00195       -0.35938       -0.20312        0.00000
 BRILLOUIN|   139           0.00195       -0.35938       -0.17188        0.00000
 BRILLOUIN|   140           0.00195       -0.35938       -0.14062        0.00000
 BRILLOUIN|   141           0.00195       -0.35938       -0.10938        0.00000
 BRILLOUIN|   142           0.00195       -0.35938       -0.07812        0.00000
 BRILLOUIN|   143           0.00195       -0.35938       -0.04688        0.00000
 BRILLOUIN|   144           0.00195       -0.35938       -0.01562        0.00000
 BRILLOUIN|   145           0.00195       -0.35938        0.01562        0.00000
 BRILLOUIN|   146           0.00195       -0.35938        0.04688        0.00000
 BRILLOUIN|   147           0.00195       -0.35938        0.07812        0.00000
 BRILLOUIN|   148           0.00195       -0.35938        0.10938        0.00000
 BRILLOUIN|   149           0.00195       -0.35938        0.14062        0.00000
 BRILLOUIN|   150           0.00195       -0.35938        0.17188        0.00000
 BRILLOUIN|   151           0.00195       -0.35938        0.20312        0.00000
 BRILLOUIN|   152           0.00195       -0.35938        0.23438        0.00000
 BRILLOUIN|   153           0.00195       -0.35938        0.26562        0.00000
 BRILLOUIN|   154           0.00195       -0.35938        0.29688        0.00000
 BRILLOUIN|   155           0.00195       -0.35938        0.32812        0.00000
 BRILLOUIN|   156           0.00195       -0.35938        0.35938        0.00000
 BRILLOUIN|   157           0.00195       -0.35938        0.39062        0.00000
 BRILLOUIN|   158           0.00195       -0.35938        0.42188        0.00000
 BRILLOUIN|   159           0.00195       -0.35938        0.45312        0.00000
 BRILLOUIN|   160           0.00195       -0.35938        0.48438        0.00000
 BRILLOUIN|   161           0.00195       -0.32812       -0.48438        0.00000
 BRILLOUIN|   162           0.00195       -0.32812       -0.45312        0.00000
 BRILLOUIN|   163           0.00195       -0.32812       -0.42188        0.00000
 BRILLOUIN|   164           0.00195       -0.32812       -0.39062        0.00000
 BRILLOUIN|   165           0.00195       -0.32812       -0.35938        0.00000
 BRILLOUIN|   166           0.00195       -0.32812       -0.32812        0.00000
 BRILLOUIN|   167           0.00195       -0.32812       -0.29688        0.00000
 BRILLOUIN|   168           0.00195       -0.32812       -0.26562        0.00000
 BRILLOUIN|   169           0.00195       -0.32812       -0.23438        0.00000
 BRILLOUIN|   170           0.00195       -0.32812       -0.20312        0.00000
 BRILLOUIN|   171           0.00195       -0.32812       -0.17188        0.00000
 BRILLOUIN|   172           0.00195       -0.32812       -0.14062        0.00000
 BRILLOUIN|   173           0.00195       -0.32812       -0.10938        0.00000
 BRILLOUIN|   174           0.00195       -0.32812       -0.07812        0.00000
 BRILLOUIN|   175           0.00195       -0.32812       -0.04688        0.00000
 BRILLOUIN|   176           0.00195       -0.32812       -0.01562        0.00000
 BRILLOUIN|   177           0.00195       -0.32812        0.01562        0.00000
 BRILLOUIN|   178           0.00195       -0.32812        0.04688        0.00000
 BRILLOUIN|   179           0.00195       -0.32812        0.07812        0.00000
 BRILLOUIN|   180           0.00195       -0.32812        0.10938        0.00000
 BRILLOUIN|   181           0.00195       -0.32812        0.14062        0.00000
 BRILLOUIN|   182           0.00195       -0.32812        0.17188        0.00000
 BRILLOUIN|   183           0.00195       -0.32812        0.20312        0.00000
 BRILLOUIN|   184           0.00195       -0.32812        0.23438        0.00000
 BRILLOUIN|   185           0.00195       -0.32812        0.26562        0.00000
 BRILLOUIN|   186           0.00195       -0.32812        0.29688        0.00000
 BRILLOUIN|   187           0.00195       -0.32812        0.32812        0.00000
 BRILLOUIN|   188           0.00195       -0.32812        0.35938        0.00000
 BRILLOUIN|   189           0.00195       -0.32812        0.39062        0.00000
 BRILLOUIN|   190           0.00195       -0.32812        0.42188        0.00000
 BRILLOUIN|   191           0.00195       -0.32812        0.45312        0.00000
 BRILLOUIN|   192           0.00195       -0.32812        0.48438        0.00000
 BRILLOUIN|   193           0.00195       -0.29688       -0.48438        0.00000
 BRILLOUIN|   194           0.00195       -0.29688       -0.45312        0.00000
 BRILLOUIN|   195           0.00195       -0.29688       -0.42188        0.00000
 BRILLOUIN|   196           0.00195       -0.29688       -0.39062        0.00000
 BRILLOUIN|   197           0.00195       -0.29688       -0.35938        0.00000
 BRILLOUIN|   198           0.00195       -0.29688       -0.32812        0.00000
 BRILLOUIN|   199           0.00195       -0.29688       -0.29688        0.00000
 BRILLOUIN|   200           0.00195       -0.29688       -0.26562        0.00000
 BRILLOUIN|   201           0.00195       -0.29688       -0.23438        0.00000
 BRILLOUIN|   202           0.00195       -0.29688       -0.20312        0.00000
 BRILLOUIN|   203           0.00195       -0.29688       -0.17188        0.00000
 BRILLOUIN|   204           0.00195       -0.29688       -0.14062        0.00000
 BRILLOUIN|   205           0.00195       -0.29688       -0.10938        0.00000
 BRILLOUIN|   206           0.00195       -0.29688       -0.07812        0.00000
 BRILLOUIN|   207           0.00195       -0.29688       -0.04688        0.00000
 BRILLOUIN|   208           0.00195       -0.29688       -0.01562        0.00000
 BRILLOUIN|   209           0.00195       -0.29688        0.01562        0.00000
 BRILLOUIN|   210           0.00195       -0.29688        0.04688        0.00000
 BRILLOUIN|   211           0.00195       -0.29688        0.07812        0.00000
 BRILLOUIN|   212           0.00195       -0.29688        0.10938        0.00000
 BRILLOUIN|   213           0.00195       -0.29688        0.14062        0.00000
 BRILLOUIN|   214           0.00195       -0.29688        0.17188        0.00000
 BRILLOUIN|   215           0.00195       -0.29688        0.20312        0.00000
 BRILLOUIN|   216           0.00195       -0.29688        0.23438        0.00000
 BRILLOUIN|   217           0.00195       -0.29688        0.26562        0.00000
 BRILLOUIN|   218           0.00195       -0.29688        0.29688        0.00000
 BRILLOUIN|   219           0.00195       -0.29688        0.32812        0.00000
 BRILLOUIN|   220           0.00195       -0.29688        0.35938        0.00000
 BRILLOUIN|   221           0.00195       -0.29688        0.39062        0.00000
 BRILLOUIN|   222           0.00195       -0.29688        0.42188        0.00000
 BRILLOUIN|   223           0.00195       -0.29688        0.45312        0.00000
 BRILLOUIN|   224           0.00195       -0.29688        0.48438        0.00000
 BRILLOUIN|   225           0.00195       -0.26562       -0.48438        0.00000
 BRILLOUIN|   226           0.00195       -0.26562       -0.45312        0.00000
 BRILLOUIN|   227           0.00195       -0.26562       -0.42188        0.00000
 BRILLOUIN|   228           0.00195       -0.26562       -0.39062        0.00000
 BRILLOUIN|   229           0.00195       -0.26562       -0.35938        0.00000
 BRILLOUIN|   230           0.00195       -0.26562       -0.32812        0.00000
 BRILLOUIN|   231           0.00195       -0.26562       -0.29688        0.00000
 BRILLOUIN|   232           0.00195       -0.26562       -0.26562        0.00000
 BRILLOUIN|   233           0.00195       -0.26562       -0.23438        0.00000
 BRILLOUIN|   234           0.00195       -0.26562       -0.20312        0.00000
 BRILLOUIN|   235           0.00195       -0.26562       -0.17188        0.00000
 BRILLOUIN|   236           0.00195       -0.26562       -0.14062        0.00000
 BRILLOUIN|   237           0.00195       -0.26562       -0.10938        0.00000
 BRILLOUIN|   238           0.00195       -0.26562       -0.07812        0.00000
 BRILLOUIN|   239           0.00195       -0.26562       -0.04688        0.00000
 BRILLOUIN|   240           0.00195       -0.26562       -0.01562        0.00000
 BRILLOUIN|   241           0.00195       -0.26562        0.01562        0.00000
 BRILLOUIN|   242           0.00195       -0.26562        0.04688        0.00000
 BRILLOUIN|   243           0.00195       -0.26562        0.07812        0.00000
 BRILLOUIN|   244           0.00195       -0.26562        0.10938        0.00000
 BRILLOUIN|   245           0.00195       -0.26562        0.14062        0.00000
 BRILLOUIN|   246           0.00195       -0.26562        0.17188        0.00000
 BRILLOUIN|   247           0.00195       -0.26562        0.20312        0.00000
 BRILLOUIN|   248           0.00195       -0.26562        0.23438        0.00000
 BRILLOUIN|   249           0.00195       -0.26562        0.26562        0.00000
 BRILLOUIN|   250           0.00195       -0.26562        0.29688        0.00000
 BRILLOUIN|   251           0.00195       -0.26562        0.32812        0.00000
 BRILLOUIN|   252           0.00195       -0.26562        0.35938        0.00000
 BRILLOUIN|   253           0.00195       -0.26562        0.39062        0.00000
 BRILLOUIN|   254           0.00195       -0.26562        0.42188        0.00000
 BRILLOUIN|   255           0.00195       -0.26562        0.45312        0.00000
 BRILLOUIN|   256           0.00195       -0.26562        0.48438        0.00000
 BRILLOUIN|   257           0.00195       -0.23438       -0.48438        0.00000
 BRILLOUIN|   258           0.00195       -0.23438       -0.45312        0.00000
 BRILLOUIN|   259           0.00195       -0.23438       -0.42188        0.00000
 BRILLOUIN|   260           0.00195       -0.23438       -0.39062        0.00000
 BRILLOUIN|   261           0.00195       -0.23438       -0.35938        0.00000
 BRILLOUIN|   262           0.00195       -0.23438       -0.32812        0.00000
 BRILLOUIN|   263           0.00195       -0.23438       -0.29688        0.00000
 BRILLOUIN|   264           0.00195       -0.23438       -0.26562        0.00000
 BRILLOUIN|   265           0.00195       -0.23438       -0.23438        0.00000
 BRILLOUIN|   266           0.00195       -0.23438       -0.20312        0.00000
 BRILLOUIN|   267           0.00195       -0.23438       -0.17188        0.00000
 BRILLOUIN|   268           0.00195       -0.23438       -0.14062        0.00000
 BRILLOUIN|   269           0.00195       -0.23438       -0.10938        0.00000
 BRILLOUIN|   270           0.00195       -0.23438       -0.07812        0.00000
 BRILLOUIN|   271           0.00195       -0.23438       -0.04688        0.00000
 BRILLOUIN|   272           0.00195       -0.23438       -0.01562        0.00000
 BRILLOUIN|   273           0.00195       -0.23438        0.01562        0.00000
 BRILLOUIN|   274           0.00195       -0.23438        0.04688        0.00000
 BRILLOUIN|   275           0.00195       -0.23438        0.07812        0.00000
 BRILLOUIN|   276           0.00195       -0.23438        0.10938        0.00000
 BRILLOUIN|   277           0.00195       -0.23438        0.14062        0.00000
 BRILLOUIN|   278           0.00195       -0.23438        0.17188        0.00000
 BRILLOUIN|   279           0.00195       -0.23438        0.20312        0.00000
 BRILLOUIN|   280           0.00195       -0.23438        0.23438        0.00000
 BRILLOUIN|   281           0.00195       -0.23438        0.26562        0.00000
 BRILLOUIN|   282           0.00195       -0.23438        0.29688        0.00000
 BRILLOUIN|   283           0.00195       -0.23438        0.32812        0.00000
 BRILLOUIN|   284           0.00195       -0.23438        0.35938        0.00000
 BRILLOUIN|   285           0.00195       -0.23438        0.39062        0.00000
 BRILLOUIN|   286           0.00195       -0.23438        0.42188        0.00000
 BRILLOUIN|   287           0.00195       -0.23438        0.45312        0.00000
 BRILLOUIN|   288           0.00195       -0.23438        0.48438        0.00000
 BRILLOUIN|   289           0.00195       -0.20312       -0.48438        0.00000
 BRILLOUIN|   290           0.00195       -0.20312       -0.45312        0.00000
 BRILLOUIN|   291           0.00195       -0.20312       -0.42188        0.00000
 BRILLOUIN|   292           0.00195       -0.20312       -0.39062        0.00000
 BRILLOUIN|   293           0.00195       -0.20312       -0.35938        0.00000
 BRILLOUIN|   294           0.00195       -0.20312       -0.32812        0.00000
 BRILLOUIN|   295           0.00195       -0.20312       -0.29688        0.00000
 BRILLOUIN|   296           0.00195       -0.20312       -0.26562        0.00000
 BRILLOUIN|   297           0.00195       -0.20312       -0.23438        0.00000
 BRILLOUIN|   298           0.00195       -0.20312       -0.20312        0.00000
 BRILLOUIN|   299           0.00195       -0.20312       -0.17188        0.00000
 BRILLOUIN|   300           0.00195       -0.20312       -0.14062        0.00000
 BRILLOUIN|   301           0.00195       -0.20312       -0.10938        0.00000
 BRILLOUIN|   302           0.00195       -0.20312       -0.07812        0.00000
 BRILLOUIN|   303           0.00195       -0.20312       -0.04688        0.00000
 BRILLOUIN|   304           0.00195       -0.20312       -0.01562        0.00000
 BRILLOUIN|   305           0.00195       -0.20312        0.01562        0.00000
 BRILLOUIN|   306           0.00195       -0.20312        0.04688        0.00000
 BRILLOUIN|   307           0.00195       -0.20312        0.07812        0.00000
 BRILLOUIN|   308           0.00195       -0.20312        0.10938        0.00000
 BRILLOUIN|   309           0.00195       -0.20312        0.14062        0.00000
 BRILLOUIN|   310           0.00195       -0.20312        0.17188        0.00000
 BRILLOUIN|   311           0.00195       -0.20312        0.20312        0.00000
 BRILLOUIN|   312           0.00195       -0.20312        0.23438        0.00000
 BRILLOUIN|   313           0.00195       -0.20312        0.26562        0.00000
 BRILLOUIN|   314           0.00195       -0.20312        0.29688        0.00000
 BRILLOUIN|   315           0.00195       -0.20312        0.32812        0.00000
 BRILLOUIN|   316           0.00195       -0.20312        0.35938        0.00000
 BRILLOUIN|   317           0.00195       -0.20312        0.39062        0.00000
 BRILLOUIN|   318           0.00195       -0.20312        0.42188        0.00000
 BRILLOUIN|   319           0.00195       -0.20312        0.45312        0.00000
 BRILLOUIN|   320           0.00195       -0.20312        0.48438        0.00000
 BRILLOUIN|   321           0.00195       -0.17188       -0.48438        0.00000
 BRILLOUIN|   322           0.00195       -0.17188       -0.45312        0.00000
 BRILLOUIN|   323           0.00195       -0.17188       -0.42188        0.00000
 BRILLOUIN|   324           0.00195       -0.17188       -0.39062        0.00000
 BRILLOUIN|   325           0.00195       -0.17188       -0.35938        0.00000
 BRILLOUIN|   326           0.00195       -0.17188       -0.32812        0.00000
 BRILLOUIN|   327           0.00195       -0.17188       -0.29688        0.00000
 BRILLOUIN|   328           0.00195       -0.17188       -0.26562        0.00000
 BRILLOUIN|   329           0.00195       -0.17188       -0.23438        0.00000
 BRILLOUIN|   330           0.00195       -0.17188       -0.20312        0.00000
 BRILLOUIN|   331           0.00195       -0.17188       -0.17188        0.00000
 BRILLOUIN|   332           0.00195       -0.17188       -0.14062        0.00000
 BRILLOUIN|   333           0.00195       -0.17188       -0.10938        0.00000
 BRILLOUIN|   334           0.00195       -0.17188       -0.07812        0.00000
 BRILLOUIN|   335           0.00195       -0.17188       -0.04688        0.00000
 BRILLOUIN|   336           0.00195       -0.17188       -0.01562        0.00000
 BRILLOUIN|   337           0.00195       -0.17188        0.01562        0.00000
 BRILLOUIN|   338           0.00195       -0.17188        0.04688        0.00000
 BRILLOUIN|   339           0.00195       -0.17188        0.07812        0.00000
 BRILLOUIN|   340           0.00195       -0.17188        0.10938        0.00000
 BRILLOUIN|   341           0.00195       -0.17188        0.14062        0.00000
 BRILLOUIN|   342           0.00195       -0.17188        0.17188        0.00000
 BRILLOUIN|   343           0.00195       -0.17188        0.20312        0.00000
 BRILLOUIN|   344           0.00195       -0.17188        0.23438        0.00000
 BRILLOUIN|   345           0.00195       -0.17188        0.26562        0.00000
 BRILLOUIN|   346           0.00195       -0.17188        0.29688        0.00000
 BRILLOUIN|   347           0.00195       -0.17188        0.32812        0.00000
 BRILLOUIN|   348           0.00195       -0.17188        0.35938        0.00000
 BRILLOUIN|   349           0.00195       -0.17188        0.39062        0.00000
 BRILLOUIN|   350           0.00195       -0.17188        0.42188        0.00000
 BRILLOUIN|   351           0.00195       -0.17188        0.45312        0.00000
 BRILLOUIN|   352           0.00195       -0.17188        0.48438        0.00000
 BRILLOUIN|   353           0.00195       -0.14062       -0.48438        0.00000
 BRILLOUIN|   354           0.00195       -0.14062       -0.45312        0.00000
 BRILLOUIN|   355           0.00195       -0.14062       -0.42188        0.00000
 BRILLOUIN|   356           0.00195       -0.14062       -0.39062        0.00000
 BRILLOUIN|   357           0.00195       -0.14062       -0.35938        0.00000
 BRILLOUIN|   358           0.00195       -0.14062       -0.32812        0.00000
 BRILLOUIN|   359           0.00195       -0.14062       -0.29688        0.00000
 BRILLOUIN|   360           0.00195       -0.14062       -0.26562        0.00000
 BRILLOUIN|   361           0.00195       -0.14062       -0.23438        0.00000
 BRILLOUIN|   362           0.00195       -0.14062       -0.20312        0.00000
 BRILLOUIN|   363           0.00195       -0.14062       -0.17188        0.00000
 BRILLOUIN|   364           0.00195       -0.14062       -0.14062        0.00000
 BRILLOUIN|   365           0.00195       -0.14062       -0.10938        0.00000
 BRILLOUIN|   366           0.00195       -0.14062       -0.07812        0.00000
 BRILLOUIN|   367           0.00195       -0.14062       -0.04688        0.00000
 BRILLOUIN|   368           0.00195       -0.14062       -0.01562        0.00000
 BRILLOUIN|   369           0.00195       -0.14062        0.01562        0.00000
 BRILLOUIN|   370           0.00195       -0.14062        0.04688        0.00000
 BRILLOUIN|   371           0.00195       -0.14062        0.07812        0.00000
 BRILLOUIN|   372           0.00195       -0.14062        0.10938        0.00000
 BRILLOUIN|   373           0.00195       -0.14062        0.14062        0.00000
 BRILLOUIN|   374           0.00195       -0.14062        0.17188        0.00000
 BRILLOUIN|   375           0.00195       -0.14062        0.20312        0.00000
 BRILLOUIN|   376           0.00195       -0.14062        0.23438        0.00000
 BRILLOUIN|   377           0.00195       -0.14062        0.26562        0.00000
 BRILLOUIN|   378           0.00195       -0.14062        0.29688        0.00000
 BRILLOUIN|   379           0.00195       -0.14062        0.32812        0.00000
 BRILLOUIN|   380           0.00195       -0.14062        0.35938        0.00000
 BRILLOUIN|   381           0.00195       -0.14062        0.39062        0.00000
 BRILLOUIN|   382           0.00195       -0.14062        0.42188        0.00000
 BRILLOUIN|   383           0.00195       -0.14062        0.45312        0.00000
 BRILLOUIN|   384           0.00195       -0.14062        0.48438        0.00000
 BRILLOUIN|   385           0.00195       -0.10938       -0.48438        0.00000
 BRILLOUIN|   386           0.00195       -0.10938       -0.45312        0.00000
 BRILLOUIN|   387           0.00195       -0.10938       -0.42188        0.00000
 BRILLOUIN|   388           0.00195       -0.10938       -0.39062        0.00000
 BRILLOUIN|   389           0.00195       -0.10938       -0.35938        0.00000
 BRILLOUIN|   390           0.00195       -0.10938       -0.32812        0.00000
 BRILLOUIN|   391           0.00195       -0.10938       -0.29688        0.00000
 BRILLOUIN|   392           0.00195       -0.10938       -0.26562        0.00000
 BRILLOUIN|   393           0.00195       -0.10938       -0.23438        0.00000
 BRILLOUIN|   394           0.00195       -0.10938       -0.20312        0.00000
 BRILLOUIN|   395           0.00195       -0.10938       -0.17188        0.00000
 BRILLOUIN|   396           0.00195       -0.10938       -0.14062        0.00000
 BRILLOUIN|   397           0.00195       -0.10938       -0.10938        0.00000
 BRILLOUIN|   398           0.00195       -0.10938       -0.07812        0.00000
 BRILLOUIN|   399           0.00195       -0.10938       -0.04688        0.00000
 BRILLOUIN|   400           0.00195       -0.10938       -0.01562        0.00000
 BRILLOUIN|   401           0.00195       -0.10938        0.01562        0.00000
 BRILLOUIN|   402           0.00195       -0.10938        0.04688        0.00000
 BRILLOUIN|   403           0.00195       -0.10938        0.07812        0.00000
 BRILLOUIN|   404           0.00195       -0.10938        0.10938        0.00000
 BRILLOUIN|   405           0.00195       -0.10938        0.14062        0.00000
 BRILLOUIN|   406           0.00195       -0.10938        0.17188        0.00000
 BRILLOUIN|   407           0.00195       -0.10938        0.20312        0.00000
 BRILLOUIN|   408           0.00195       -0.10938        0.23438        0.00000
 BRILLOUIN|   409           0.00195       -0.10938        0.26562        0.00000
 BRILLOUIN|   410           0.00195       -0.10938        0.29688        0.00000
 BRILLOUIN|   411           0.00195       -0.10938        0.32812        0.00000
 BRILLOUIN|   412           0.00195       -0.10938        0.35938        0.00000
 BRILLOUIN|   413           0.00195       -0.10938        0.39062        0.00000
 BRILLOUIN|   414           0.00195       -0.10938        0.42188        0.00000
 BRILLOUIN|   415           0.00195       -0.10938        0.45312        0.00000
 BRILLOUIN|   416           0.00195       -0.10938        0.48438        0.00000
 BRILLOUIN|   417           0.00195       -0.07812       -0.48438        0.00000
 BRILLOUIN|   418           0.00195       -0.07812       -0.45312        0.00000
 BRILLOUIN|   419           0.00195       -0.07812       -0.42188        0.00000
 BRILLOUIN|   420           0.00195       -0.07812       -0.39062        0.00000
 BRILLOUIN|   421           0.00195       -0.07812       -0.35938        0.00000
 BRILLOUIN|   422           0.00195       -0.07812       -0.32812        0.00000
 BRILLOUIN|   423           0.00195       -0.07812       -0.29688        0.00000
 BRILLOUIN|   424           0.00195       -0.07812       -0.26562        0.00000
 BRILLOUIN|   425           0.00195       -0.07812       -0.23438        0.00000
 BRILLOUIN|   426           0.00195       -0.07812       -0.20312        0.00000
 BRILLOUIN|   427           0.00195       -0.07812       -0.17188        0.00000
 BRILLOUIN|   428           0.00195       -0.07812       -0.14062        0.00000
 BRILLOUIN|   429           0.00195       -0.07812       -0.10938        0.00000
 BRILLOUIN|   430           0.00195       -0.07812       -0.07812        0.00000
 BRILLOUIN|   431           0.00195       -0.07812       -0.04688        0.00000
 BRILLOUIN|   432           0.00195       -0.07812       -0.01562        0.00000
 BRILLOUIN|   433           0.00195       -0.07812        0.01562        0.00000
 BRILLOUIN|   434           0.00195       -0.07812        0.04688        0.00000
 BRILLOUIN|   435           0.00195       -0.07812        0.07812        0.00000
 BRILLOUIN|   436           0.00195       -0.07812        0.10938        0.00000
 BRILLOUIN|   437           0.00195       -0.07812        0.14062        0.00000
 BRILLOUIN|   438           0.00195       -0.07812        0.17188        0.00000
 BRILLOUIN|   439           0.00195       -0.07812        0.20312        0.00000
 BRILLOUIN|   440           0.00195       -0.07812        0.23438        0.00000
 BRILLOUIN|   441           0.00195       -0.07812        0.26562        0.00000
 BRILLOUIN|   442           0.00195       -0.07812        0.29688        0.00000
 BRILLOUIN|   443           0.00195       -0.07812        0.32812        0.00000
 BRILLOUIN|   444           0.00195       -0.07812        0.35938        0.00000
 BRILLOUIN|   445           0.00195       -0.07812        0.39062        0.00000
 BRILLOUIN|   446           0.00195       -0.07812        0.42188        0.00000
 BRILLOUIN|   447           0.00195       -0.07812        0.45312        0.00000
 BRILLOUIN|   448           0.00195       -0.07812        0.48438        0.00000
 BRILLOUIN|   449           0.00195       -0.04688       -0.48438        0.00000
 BRILLOUIN|   450           0.00195       -0.04688       -0.45312        0.00000
 BRILLOUIN|   451           0.00195       -0.04688       -0.42188        0.00000
 BRILLOUIN|   452           0.00195       -0.04688       -0.39062        0.00000
 BRILLOUIN|   453           0.00195       -0.04688       -0.35938        0.00000
 BRILLOUIN|   454           0.00195       -0.04688       -0.32812        0.00000
 BRILLOUIN|   455           0.00195       -0.04688       -0.29688        0.00000
 BRILLOUIN|   456           0.00195       -0.04688       -0.26562        0.00000
 BRILLOUIN|   457           0.00195       -0.04688       -0.23438        0.00000
 BRILLOUIN|   458           0.00195       -0.04688       -0.20312        0.00000
 BRILLOUIN|   459           0.00195       -0.04688       -0.17188        0.00000
 BRILLOUIN|   460           0.00195       -0.04688       -0.14062        0.00000
 BRILLOUIN|   461           0.00195       -0.04688       -0.10938        0.00000
 BRILLOUIN|   462           0.00195       -0.04688       -0.07812        0.00000
 BRILLOUIN|   463           0.00195       -0.04688       -0.04688        0.00000
 BRILLOUIN|   464           0.00195       -0.04688       -0.01562        0.00000
 BRILLOUIN|   465           0.00195       -0.04688        0.01562        0.00000
 BRILLOUIN|   466           0.00195       -0.04688        0.04688        0.00000
 BRILLOUIN|   467           0.00195       -0.04688        0.07812        0.00000
 BRILLOUIN|   468           0.00195       -0.04688        0.10938        0.00000
 BRILLOUIN|   469           0.00195       -0.04688        0.14062        0.00000
 BRILLOUIN|   470           0.00195       -0.04688        0.17188        0.00000
 BRILLOUIN|   471           0.00195       -0.04688        0.20312        0.00000
 BRILLOUIN|   472           0.00195       -0.04688        0.23438        0.00000
 BRILLOUIN|   473           0.00195       -0.04688        0.26562        0.00000
 BRILLOUIN|   474           0.00195       -0.04688        0.29688        0.00000
 BRILLOUIN|   475           0.00195       -0.04688        0.32812        0.00000
 BRILLOUIN|   476           0.00195       -0.04688        0.35938        0.00000
 BRILLOUIN|   477           0.00195       -0.04688        0.39062        0.00000
 BRILLOUIN|   478           0.00195       -0.04688        0.42188        0.00000
 BRILLOUIN|   479           0.00195       -0.04688        0.45312        0.00000
 BRILLOUIN|   480           0.00195       -0.04688        0.48438        0.00000
 BRILLOUIN|   481           0.00195       -0.01562       -0.48438        0.00000
 BRILLOUIN|   482           0.00195       -0.01562       -0.45312        0.00000
 BRILLOUIN|   483           0.00195       -0.01562       -0.42188        0.00000
 BRILLOUIN|   484           0.00195       -0.01562       -0.39062        0.00000
 BRILLOUIN|   485           0.00195       -0.01562       -0.35938        0.00000
 BRILLOUIN|   486           0.00195       -0.01562       -0.32812        0.00000
 BRILLOUIN|   487           0.00195       -0.01562       -0.29688        0.00000
 BRILLOUIN|   488           0.00195       -0.01562       -0.26562        0.00000
 BRILLOUIN|   489           0.00195       -0.01562       -0.23438        0.00000
 BRILLOUIN|   490           0.00195       -0.01562       -0.20312        0.00000
 BRILLOUIN|   491           0.00195       -0.01562       -0.17188        0.00000
 BRILLOUIN|   492           0.00195       -0.01562       -0.14062        0.00000
 BRILLOUIN|   493           0.00195       -0.01562       -0.10938        0.00000
 BRILLOUIN|   494           0.00195       -0.01562       -0.07812        0.00000
 BRILLOUIN|   495           0.00195       -0.01562       -0.04688        0.00000
 BRILLOUIN|   496           0.00195       -0.01562       -0.01562        0.00000
 BRILLOUIN|   497           0.00195       -0.01562        0.01562        0.00000
 BRILLOUIN|   498           0.00195       -0.01562        0.04688        0.00000
 BRILLOUIN|   499           0.00195       -0.01562        0.07812        0.00000
 BRILLOUIN|   500           0.00195       -0.01562        0.10938        0.00000
 BRILLOUIN|   501           0.00195       -0.01562        0.14062        0.00000
 BRILLOUIN|   502           0.00195       -0.01562        0.17188        0.00000
 BRILLOUIN|   503           0.00195       -0.01562        0.20312        0.00000
 BRILLOUIN|   504           0.00195       -0.01562        0.23438        0.00000
 BRILLOUIN|   505           0.00195       -0.01562        0.26562        0.00000
 BRILLOUIN|   506           0.00195       -0.01562        0.29688        0.00000
 BRILLOUIN|   507           0.00195       -0.01562        0.32812        0.00000
 BRILLOUIN|   508           0.00195       -0.01562        0.35938        0.00000
 BRILLOUIN|   509           0.00195       -0.01562        0.39062        0.00000
 BRILLOUIN|   510           0.00195       -0.01562        0.42188        0.00000
 BRILLOUIN|   511           0.00195       -0.01562        0.45312        0.00000
 BRILLOUIN|   512           0.00195       -0.01562        0.48438        0.00000
 *******************************************************************************

 *******************************************************************************
 *******************************************************************************
 **                                                                           **
 **     #####                         ##              ##                      **
 **    ##   ##            ##          ##              ##                      **
 **   ##     ##                       ##            ######                    **
 **   ##     ##  ##   ##  ##   #####  ##  ##   ####   ##    #####    #####    **
 **   ##     ##  ##   ##  ##  ##      ## ##   ##      ##   ##   ##  ##   ##   **
 **   ##  ## ##  ##   ##  ##  ##      ####     ###    ##   ######   ######    **
 **    ##  ###   ##   ##  ##  ##      ## ##      ##   ##   ##       ##        **
 **     #######   #####   ##   #####  ##  ##  ####    ##    #####   ##        **
 **           ##                                                    ##        **
 **                                                                           **
 **                                                ... make the atoms dance   **
 **                                                                           **
 **            Copyright (C) by CP2K developers group (2000-2025)             **
 **                      J. Chem. Phys. 152, 194103 (2020)                    **
 **                                                                           **
 *******************************************************************************

 DFT| Spin restricted Kohn-Sham (RKS) calculation                            RKS
 DFT| Multiplicity                                                             1
 DFT| Number of spin states                                                    1
 DFT| Charge                                                                   0
 DFT| Self-interaction correction (SIC)                                       NO
 DFT| Cutoffs: density                                              1.000000E-10
 DFT|          gradient                                             1.000000E-10
 DFT|          tau                                                  1.000000E-10
 DFT|          cutoff_smoothing_range                               0.000000E+00
 DFT| XC density smoothing                                                  NONE
 DFT| XC derivatives                                                          PW

 FUNCTIONAL| PBE:
 FUNCTIONAL| J.P.Perdew, K.Burke, M.Ernzerhof, Phys. Rev. Letter, vol. 77, n 18,
 FUNCTIONAL|  pp. 3865-3868, (1996) {spin unpolarized}                          


 QS| Method:                                                                GAPW
 QS| Density plane wave grid type                        NON-SPHERICAL FULLSPACE
 QS| Number of grid levels:                                                    4
 QS| Density cutoff [a.u.]:                                                250.0
 QS| Multi grid cutoff [a.u.]: 1) grid level                               250.0
 QS|                           2) grid level                                83.3
 QS|                           3) grid level                                27.8
 QS|                           4) grid level                                 9.3
 QS| Grid level progression factor:                                          3.0
 QS| Relative density cutoff [a.u.]:                                        50.0
 QS| Interaction thresholds: eps_pgf_orb:                                1.0E-12
 QS|                         eps_filter_matrix:                          0.0E+00
 QS|                         eps_core_charge:                            1.0E-14
 QS|                         eps_rho_gspace:                             1.0E-12
 QS|                         eps_rho_rspace:                             1.0E-12
 QS|                         eps_gvg_rspace:                             1.0E-06
 QS|                         eps_ppl:                                    1.0E-02
 QS|                         eps_ppnl:                                   1.0E-08
 QS| GAPW|      One center basis from orbital basis primitives
 QS| GAPW|                   eps_fit:                                    1.0E-04
 QS| GAPW|                   eps_iso:                                    1.0E-12
 QS| GAPW|                   eps_svd:                                    1.0E-08
 QS| GAPW|                   eps_cpc:                                    1.0E-12
 QS| GAPW|   atom-r-grid: quadrature:                                     GC_LOG
 QS| GAPW|      atom-s-grid:  max l :                                          4
 QS| GAPW|      max_l_rho0 :                                                   2
 QS| GAPW|      At least one kind is NOT PAW, i.e. it has only soft AO 
 QS| GAPW|      The NOT PAW atoms are treated fully GPW


 ATOMIC KIND INFORMATION

  1. Atomic kind: Mo                                    Number of atoms:       1

     Orbital Basis Set                                         SZV-MOLOPT-SR-GTH

       Number of orbital shell sets:                                           1
       Number of orbital shells:                                               4
       Number of primitive Cartesian functions:                                7
       Number of Cartesian basis functions:                                   11
       Number of spherical basis functions:                                   10
       Norm type:                                                              2

       Normalised Cartesian orbitals:

                        Set   Shell   Orbital            Exponent    Coefficient

                          1       1    2s                2.540273      -1.291313
                                                         1.999996       0.475974
                                                         0.894040       0.689563
                                                         0.439257       0.078864
                                                         0.189498       0.027372
                                                         0.083802      -0.010762
                                                         0.052949       0.001981

                          1       2    3s                2.540273       0.199824
                                                         1.999996      -0.186721
                                                         0.894040       0.125661
                                                         0.439257       0.016258
                                                         0.189498      -0.028997
                                                         0.083802      -0.064725
                                                         0.052949      -0.030340

                          1       3    3px               2.540273       2.808959
                                                         1.999996      -2.548088
                                                         0.894040      -0.605502
                                                         0.439257      -0.180857
                                                         0.189498      -0.006020
                                                         0.083802      -0.000118
                                                         0.052949       0.000064
                          1       3    3py               2.540273       2.808959
                                                         1.999996      -2.548088
                                                         0.894040      -0.605502
                                                         0.439257      -0.180857
                                                         0.189498      -0.006020
                                                         0.083802      -0.000118
                                                         0.052949       0.000064
                          1       3    3pz               2.540273       2.808959
                                                         1.999996      -2.548088
                                                         0.894040      -0.605502
                                                         0.439257      -0.180857
                                                         0.189498      -0.006020
                                                         0.083802      -0.000118
                                                         0.052949       0.000064

                          1       4    4dx2              2.540273      -1.655644
                                                         1.999996       2.115795
                                                         0.894040       0.370223
                                                         0.439257       0.160904
                                                         0.189498       0.023725
                                                         0.083802       0.001356
                                                         0.052949       0.000173
                          1       4    4dxy              2.540273      -2.867659
                                                         1.999996       3.664665
                                                         0.894040       0.641246
                                                         0.439257       0.278693
                                                         0.189498       0.041094
                                                         0.083802       0.002348
                                                         0.052949       0.000300
                          1       4    4dxz              2.540273      -2.867659
                                                         1.999996       3.664665
                                                         0.894040       0.641246
                                                         0.439257       0.278693
                                                         0.189498       0.041094
                                                         0.083802       0.002348
                                                         0.052949       0.000300
                          1       4    4dy2              2.540273      -1.655644
                                                         1.999996       2.115795
                                                         0.894040       0.370223
                                                         0.439257       0.160904
                                                         0.189498       0.023725
                                                         0.083802       0.001356
                                                         0.052949       0.000173
                          1       4    4dyz              2.540273      -2.867659
                                                         1.999996       3.664665
                                                         0.894040       0.641246
                                                         0.439257       0.278693
                                                         0.189498       0.041094
                                                         0.083802       0.002348
                                                         0.052949       0.000300
                          1       4    4dz2              2.540273      -1.655644
                                                         1.999996       2.115795
                                                         0.894040       0.370223
                                                         0.439257       0.160904
                                                         0.189498       0.023725
                                                         0.083802       0.001356
                                                         0.052949       0.000173

     RI Auxiliary Basis Set             RI_aug-SZV-MOLOPT-GTH-SR_N_RI_071_s_p_d_

       Number of orbital shell sets:                                          17
       Number of orbital shells:                                              17
       Number of primitive Cartesian functions:                               17
       Number of Cartesian basis functions:                                  101
       Number of spherical basis functions:                                   71
       Norm type:                                                              2

       Normalised Cartesian orbitals:

                        Set   Shell   Orbital            Exponent    Coefficient

                          1       1    1s                0.131512       0.155645

                          2       1    7px               0.160998       0.145367
                          2       1    7py               0.160998       0.145367
                          2       1    7pz               0.160998       0.145367

                          3       1    2s                0.264634       0.262963

                          4       1   15gx4              0.279187       0.033315
                          4       1   15gx3y             0.279187       0.088144
                          4       1   15gx3z             0.279187       0.088144
                          4       1   15gx2y2            0.279187       0.113794
                          4       1   15gx2yz            0.279187       0.197097
                          4       1   15gx2z2            0.279187       0.113794
                          4       1   15gxy3             0.279187       0.088144
                          4       1   15gxy2z            0.279187       0.197097
                          4       1   15gxyz2            0.279187       0.197097
                          4       1   15gxz3             0.279187       0.088144
                          4       1   15gy4              0.279187       0.033315
                          4       1   15gy3z             0.279187       0.088144
                          4       1   15gy2z2            0.279187       0.113794
                          4       1   15gyz3             0.279187       0.088144
                          4       1   15gz4              0.279187       0.033315

                          5       1    8px               0.394518       0.445680
                          5       1    8py               0.394518       0.445680
                          5       1    8pz               0.394518       0.445680

                          6       1   11dx2              0.395905       0.325233
                          6       1   11dxy              0.395905       0.563320
                          6       1   11dxz              0.395905       0.563320
                          6       1   11dy2              0.395905       0.325233
                          6       1   11dyz              0.395905       0.563320
                          6       1   11dz2              0.395905       0.325233

                          7       1   13fx3              0.522089       0.341099
                          7       1   13fx2y             0.522089       0.762720
                          7       1   13fx2z             0.522089       0.762720
                          7       1   13fxy2             0.522089       0.762720
                          7       1   13fxyz             0.522089       1.321070
                          7       1   13fxz2             0.522089       0.762720
                          7       1   13fy3              0.522089       0.341099
                          7       1   13fy2z             0.522089       0.762720
                          7       1   13fyz2             0.522089       0.762720
                          7       1   13fz3              0.522089       0.341099

                          8       1    3s                0.529077       0.442129

                          9       1    4s                1.047615       0.738008

                         10       1    9px               1.153622       1.704195
                         10       1    9py               1.153622       1.704195
                         10       1    9pz               1.153622       1.704195

                         11       1   12dx2              1.329303       2.708639
                         11       1   12dxy              1.329303       4.691501
                         11       1   12dxz              1.329303       4.691501
                         11       1   12dy2              1.329303       2.708639
                         11       1   12dyz              1.329303       4.691501
                         11       1   12dz2              1.329303       2.708639

                         12       1   14fx3              1.690595       4.797813
                         12       1   14fx2y             1.690595      10.728236
                         12       1   14fx2z             1.690595      10.728236
                         12       1   14fxy2             1.690595      10.728236
                         12       1   14fxyz             1.690595      18.581849
                         12       1   14fxz2             1.690595      10.728236
                         12       1   14fy3              1.690595       4.797813
                         12       1   14fy2z             1.690595      10.728236
                         12       1   14fyz2             1.690595      10.728236
                         12       1   14fz3              1.690595       4.797813

                         13       1   16gx4              2.004716       7.534958
                         13       1   16gx3y             2.004716      19.935625
                         13       1   16gx3z             2.004716      19.935625
                         13       1   16gx2y2            2.004716      25.736781
                         13       1   16gx2yz            2.004716      44.577413
                         13       1   16gx2z2            2.004716      25.736781
                         13       1   16gxy3             2.004716      19.935625
                         13       1   16gxy2z            2.004716      44.577413
                         13       1   16gxyz2            2.004716      44.577413
                         13       1   16gxz3             2.004716      19.935625
                         13       1   16gy4              2.004716       7.534958
                         13       1   16gy3z             2.004716      19.935625
                         13       1   16gy2z2            2.004716      25.736781
                         13       1   16gyz3             2.004716      19.935625
                         13       1   16gz4              2.004716       7.534958

                         14       1    5s                2.095930       1.241488

                         15       1   17hx5              2.117166       8.492732
                         15       1   17hx4y             2.117166      25.478197
                         15       1   17hx4z             2.117166      25.478197
                         15       1   17hx3y2            2.117166      38.918588
                         15       1   17hx3yz            2.117166      67.408973
                         15       1   17hx3z2            2.117166      38.918588
                         15       1   17hx2y3            2.117166      38.918588
                         15       1   17hx2y2z           2.117166      87.024609
                         15       1   17hx2yz2           2.117166      87.024609
                         15       1   17hx2z3            2.117166      38.918588
                         15       1   17hxy4             2.117166      25.478197
                         15       1   17hxy3z            2.117166      67.408973
                         15       1   17hxy2z2           2.117166      87.024609
                         15       1   17hxyz3            2.117166      67.408973
                         15       1   17hxz4             2.117166      25.478197
                         15       1   17hy5              2.117166       8.492732
                         15       1   17hy4z             2.117166      25.478197
                         15       1   17hy3z2            2.117166      38.918588
                         15       1   17hy2z3            2.117166      38.918588
                         15       1   17hyz4             2.117166      25.478197
                         15       1   17hz5              2.117166       8.492732

                         16       1   10px               3.762709       7.469918
                         16       1   10py               3.762709       7.469918
                         16       1   10pz               3.762709       7.469918

                         17       1    6s                4.220249       2.098523

       Atomic covalent radius [Angstrom]:                                  1.300

       Atomic van der Waals radius [Angstrom]:                             1.670

     GTH Potential information for                                   GTH-PBE-q14

       Description:                       Goedecker-Teter-Hutter pseudopotential
                                           Goedecker et al., PRB 54, 1703 (1996)
                                          Hartwigsen et al., PRB 58, 3641 (1998)
                                                      Krack, TCA 114, 145 (2005)

       Gaussian exponent of the core charge distribution:               2.704164
       Electronic configuration (s p d ...):                           3   6   5

       Parameters of the local part of the GTH pseudopotential:

                          rloc        C1          C2          C3          C4
                        0.430000   28.609368   -4.721803

       Parameters of the non-local part of the GTH (SOC) pseudopotential:

                   l      r(l)      h(i,j,l)
                                    k(i,j,l)
                   0    0.345216    0.146303    2.762005
                                    2.762005   -3.565733
                   1    0.416888   -0.190785   -0.728744
                                   -0.728744    0.862262
                                    0.101036    0.157628
                                    0.157628   -0.186508
                   2    0.420508    1.216814   -2.686463
                                   -2.686463    3.046162
                                    0.001360    0.022739
                                    0.022739   -0.025783

  2. Atomic kind: Se                                    Number of atoms:       2

     Orbital Basis Set                                         SZV-MOLOPT-SR-GTH

       Number of orbital shell sets:                                           1
       Number of orbital shells:                                               2
       Number of primitive Cartesian functions:                                4
       Number of Cartesian basis functions:                                    4
       Number of spherical basis functions:                                    4
       Norm type:                                                              2

       Normalised Cartesian orbitals:

                        Set   Shell   Orbital            Exponent    Coefficient

                          1       1    2s                1.465689       0.426298
                                                         1.029752      -0.111246
                                                         0.303575      -0.265065
                                                         0.107173      -0.034327

                          1       2    3px               1.465689       0.672773
                                                         1.029752      -0.499569
                                                         0.303575      -0.202949
                                                         0.107173      -0.032222
                          1       2    3py               1.465689       0.672773
                                                         1.029752      -0.499569
                                                         0.303575      -0.202949
                                                         0.107173      -0.032222
                          1       2    3pz               1.465689       0.672773
                                                         1.029752      -0.499569
                                                         0.303575      -0.202949
                                                         0.107173      -0.032222

     RI Auxiliary Basis Set             RI_aug-SZV-MOLOPT-GTH_N_RI_027_s_p_d_f_g

       Number of orbital shell sets:                                           9
       Number of orbital shells:                                               9
       Number of primitive Cartesian functions:                                9
       Number of Cartesian basis functions:                                   32
       Number of spherical basis functions:                                   27
       Norm type:                                                              2

       Normalised Cartesian orbitals:

                        Set   Shell   Orbital            Exponent    Coefficient

                          1       1    1s                0.157212       0.177940

                          2       1    7dx2              0.234787       0.130343
                          2       1    7dxy              0.234787       0.225761
                          2       1    7dxz              0.234787       0.225761
                          2       1    7dy2              0.234787       0.130343
                          2       1    7dyz              0.234787       0.225761
                          2       1    7dz2              0.234787       0.130343

                          3       1    5px               0.309141       0.328576
                          3       1    5py               0.309141       0.328576
                          3       1    5pz               0.309141       0.328576

                          4       1    9fx3              0.383083       0.169966
                          4       1    9fx2y             0.383083       0.380056
                          4       1    9fx2z             0.383083       0.380056
                          4       1    9fxy2             0.383083       0.380056
                          4       1    9fxyz             0.383083       0.658277
                          4       1    9fxz2             0.383083       0.380056
                          4       1    9fy3              0.383083       0.169966
                          4       1    9fy2z             0.383083       0.380056
                          4       1    9fyz2             0.383083       0.380056
                          4       1    9fz3              0.383083       0.169966

[...]
 dbt_contract                   1438012 10.3    6.595   11.441  438.789  760.517
 scf_env_do_scf                       1  3.0    0.000    0.000  739.635  739.645
 scf_env_do_scf_inner_loop           74  4.0    0.007    0.010  739.634  739.644
 copy_dbcsr_to_fm                286757  8.0    1.547    1.745  736.547  738.397
 compute_chi                          1  7.0    0.012    0.032  732.364  732.462
 qs_scf_new_mos_kp                   74  5.0    0.000    0.001  728.853  728.906
 do_general_diag_kp                  74  6.0    0.356    0.387  728.852  728.906
 dbcsr_complete_redistribute     508774  9.6    9.960   13.894  666.276  713.715
 dbt_tas_multiply               1585102 12.9    0.801    1.433  395.726  695.239
 dbt_tas_total                  1585102 13.9   33.880   60.134  395.216  694.369
 dbcsr_desymmetrize_deep         452373  8.3    4.603    4.898  587.704  588.990
 G_occ_vir                          121  8.0    0.267    0.299  469.557  470.850
 mp_alltoall_d11v               2883441 10.4  466.217  467.635  466.217  467.635
 mp_alltoall_i11v               1978695 10.3  454.672  454.824  454.672  454.824
 fm_to_local_tensor              146072  9.0    2.435    2.739  372.377  372.390
 copy_fm_to_dbcsr                222017  9.3    0.505    0.530  307.198  354.754
 parallel_gemm_cfm               280952  8.9    0.158    0.196  345.100  349.801
 parallel_gemm_cfm_cosma         280952  9.9  344.942  349.654  344.942  349.654
 local_dbt_to_global_fm              91  8.0    0.146    0.159  291.353  291.358
 dbt_tas_estimate_result_nze     792551 13.4   17.050   31.348  164.174  287.477
 contract_to_Sigma                   80  8.0    4.654    5.563  161.547  278.478
 mp_alltoall_i22                 961147 10.0  228.888  277.269  228.888  277.269
 contract_M_occ_vir_to_chi           45  8.0    8.173   10.766   92.891  226.502
 hybrid_alltoall_any             452373  9.3    1.262    1.301  217.194  217.815
 contract_W                          42  8.0    1.542    2.447  155.201  214.596
 compute_QP_energies                  1  7.0    0.051    0.084  207.555  207.582
 trafo_to_k_and_nn                71492  8.0    0.205    0.266  207.424  207.451
 add_V_L                         327680 10.0    2.986  193.017    2.986  193.017
 reshape_mm_small               1585102 14.9   55.361   98.462  102.428  173.724
 G_times_3c                        9522  8.0    1.894    2.903  110.598  165.123
 contract_to_Sigma_3c_x_G        281119  9.0    0.239    0.349  103.643  156.776
 dbt_tas_dbm                    1585102 14.9    0.709    1.185   83.076  156.363
 dbm_multiply                   1585102 16.9   81.565  153.752   81.565  153.752
 global_matrix_to_local_matrix   146072 10.0    2.190    2.828  134.230  151.219
 kpoint_density_transform            74  7.0    0.113    0.118  119.391  119.406
 contract_to_Sigma_contract        8487  9.0    1.678    2.294   51.568  114.696
 fm_MWM_R_t_to_local_tensor_W_R      30  8.0    0.020    0.022  110.717  110.725
 fm_to_local_array                  934  8.1   29.854   31.370  107.196  107.359
 dbt_tas_create_split           4776623 15.8    1.639    2.845   58.120  101.179
 mp_sum_dm                       655433 10.0   90.083   99.519   90.083   99.519
 get_V_tr_R                          34  9.0    0.080    0.086   98.678   98.768
 dbt_tas_create_split_rows_or_c 4776623 16.8    5.915   10.224   56.481   98.334
 mp_waitall_1                   1593830 11.1   75.222   93.462   75.222   93.462
 mult_W_with_Minv                    30  8.0    0.366    0.412   93.399   93.442
 send_data                       146072 11.0    0.092    0.104   74.260   91.460
 dbt_copy                       2230256 10.8    5.495    9.283   54.178   91.388
 communicate_buffer              146072 12.0    1.573   18.564   74.168   91.364
 reshape_mm_compatible          1585102 14.9    7.617   13.474   52.267   90.425
 mp_sum_dm3                        1069  9.0   77.448   79.044   77.448   79.044
 dbt_tas_mm_2                    619672 15.9    0.233    0.593   29.309   76.619
 dbt_tas_distribution_new       3961402 15.3   23.801   37.839   45.894   73.854
 add_rs_to_ikp                  *******  9.9   69.938   72.654   69.938   72.654
 mp_cart_create                 8107515 16.0   49.133   65.141   51.785   69.450
 trafo_rs_to_ikp                   5368  8.1    1.984    2.432   62.407   65.033
 add_ikp_to_rs                  ******* 10.0   61.067   64.325   61.067   64.325
 change_split                   2128131 15.4    2.490    4.420   33.799   61.324
 cp_fm_start_copy_general        227328  7.3    0.957    1.727   60.311   60.439
 local_dbt_to_global_mat          87451  9.0    0.298    0.317   48.962   57.706
 dbt_reshape                    1371137 11.7   24.797   40.916   34.579   57.444
 fm_add_ikp_to_rs                123904  9.0   35.602   36.396   52.229   54.692
 dbt_tas_mm_3T                   600248 16.1    0.234    0.352   35.419   54.201
 dbt_tas_reshape                1834624 15.4    5.008    8.162   33.891   54.032
 mp_allgather_i                  454656  8.3   53.187   53.790   53.187   53.790
 rsmat_to_kp                       7032  7.2    0.050    0.052   51.087   51.168
 add_ikp_to_all_rs                 4924  8.0    1.761    2.053   46.213   49.554
 dbt_tas_replicate              1585102 14.9   14.257   21.731   29.378   46.857
 mp_sum_i                       1481658 15.3   42.280   42.633   42.280   42.633
 compute_Sigma_x                      1  7.0    0.002    0.002   42.524   42.560
 mp_cart_sub                     573593 10.0   42.357   42.448   42.357   42.448
 send_sizes_1                    146072 11.0    0.083    0.090   41.877   42.330
 get_t_3c_int                   1000791  9.3    1.762    2.618   27.866   41.734
 create_and_init_bs_env_for_gw        1  6.0    0.005    0.008   38.292   38.300
 dos_pdos_ldos                        1  5.0    0.004    0.005   36.288   36.554
 fm_trafo_rs_to_ikp               71492  9.0   20.850   22.690   30.365   32.963
 dbt_remap                       124761 11.0    8.696   12.420   23.446   32.602
 mp_comm_dup                    3984076 18.3   17.043   29.903   18.231   31.951
 get_data                        146072 11.0    4.740   29.661    4.955   29.907
 SOC_ev                            2344  6.0    0.012    0.015   29.159   29.220
 power                            10204  8.0    1.745    1.922   26.024   26.820
 dbt_tas_mm_1N                   365182 15.5    0.128    0.191   17.487   26.128
 soc                                  1  5.0    0.000    0.000   26.008   26.009
 H_KS_spinor_kp                       1  6.0    0.007    0.009   25.993   25.995
 diag_complex                     10204  9.0   24.279   24.958   24.279   24.958
 create_and_init_bs_env               1  5.0    0.000    0.001   23.766   23.771
 compute_cfm_mo_coeff_kp_and_ei       1  6.0    0.002    0.003   23.758   23.759
 convert_to_new_pgrid           4755306 14.9    5.101    9.010   13.132   23.593
 dbcsr_finalize                 1940403 10.9    3.634    4.250   19.031   23.316
 mp_comm_free                   ******* 14.9   14.376   22.833   14.376   22.833
 local_matrix_to_global_matrix    87451 10.0    0.162    0.174   13.522   22.620
 mp_comm_split_direct           4776627 17.8   11.879   20.735   12.719   22.183
 dbm_reserve_blocks             7402684 16.4   13.318   22.169   13.318   22.169
 dbt_tas_reserve_blocks_index   5817582 15.6    2.487    3.983   13.573   22.155
 mp_sum_dv                        78751  8.9   15.804   20.253   15.804   20.253
 cp_cfm_heevd                      4836  7.5    0.003    0.003   19.563   19.716
 cp_cfm_heevd_base                 4836  8.5   19.560   19.713   19.560   19.713
 dbt_tas_reshape_buffer_fill    1834624 16.4   12.204   18.761   12.204   18.761
 compute_3c_integrals                 1  7.0    0.040    0.049   18.472   18.487
 build_3c_integrals                   1  8.0   17.084   17.389   17.919   18.231
 dbt_tas_reshape_buffer_obtain  1834624 16.4    7.203   11.818   11.129   18.008
 dbt_permute_index              3624029 12.1    9.003   15.626   10.234   17.794
 dbt_distribution_new_expert     541676 11.9    2.461    2.871   14.456   16.802
 dbt_tas_create_new             6068217 15.1    9.328   16.120    9.328   16.120
 dbt_tas_merge                   619672 14.9    4.288   11.472    5.768   15.569
 dbt_create_matrix               146072 10.0    0.831    0.862   14.874   15.521
 mp_alltoall_i                  6395526 14.9   13.214   14.615   13.214   14.615
 dbm_copy                       3170204 15.9    8.030   14.601    8.030   14.601
 dbt_align_index                2377653 11.4    1.306    2.301    7.780   13.688
 reshape_mm_template             249522 15.5    6.159    8.598    9.374   12.995
 dbt_destroy                    6698265 10.0    9.979   11.453   10.886   12.479
 dbcsr_merge_all                 735439 11.7    7.323    9.444    9.847   12.304
 dbcsr_filter_anytype            659143 11.0    1.503    1.575    7.895   11.773
 add_R                          *******  9.3    7.146    8.445   10.053   11.771
 trafo_V_xc_R_to_kp                   1  7.0    0.004    0.005   11.470   11.477
 dbt_tas_reserve_blocks_templat 2233087 14.0    2.297    3.760    7.144   11.421
 dbt_create_3c_R1_R2                 62  8.0    2.312    2.558   10.689   11.131
 dbt_tas_mp_comm                 917312 13.0    0.780    1.332    6.556   11.013
 destroy_t_2d                        62  8.0    2.375    3.172    8.909   10.465
 dbt_tas_copy                    647985 12.2    4.465    6.459    7.331   10.434
 dbt_reserve_blocks_index       1749871 13.4    0.988    1.558    6.046   10.259
 dbt_reserve_blocks_index_array 1582271 12.7    0.659    1.104    5.522   10.151
 get_Minv_Vtr_Minv_R                  1  8.0    0.016    0.019    9.967    9.975
 dbt_create_template            2803398  9.0    8.910    9.318    8.910    9.318
 dbt_create_new                  270838 11.4    1.542    1.831    7.663    8.975
 set_blocks                       87451 11.0    1.963    4.101    3.994    8.613
 mp_cart_get                    ******* 15.8    4.657    7.908    4.657    7.908
 send_sizes_2                    146072 11.0    0.080    0.087    7.228    7.472
 mp_comm_size                   ******* 16.1    4.193    7.216    4.193    7.216
 dbt_communicate_buffer         1371137 12.7    4.173    7.088    4.173    7.088
 dbt_copy_nocomm                 211134 11.0    1.657    4.577    2.540    7.077
 dbm_add                        1585102 14.9    4.244    7.037    4.244    7.037
 compute_proj_mo_on_kind           1172  6.0    0.013    0.016    6.893    6.975
 mp_isend_dv                    ******* 12.1    0.369    6.957    0.369    6.957
 is_cell_in_index_to_cell       *******  9.7    5.156    6.764    5.156    6.764
 mp_isend_im2                   ******* 13.0    0.242    6.562    0.242    6.562
 cp_cfm_geeig_canon                1172  7.0    0.004    0.005    6.533    6.538
 rskp_transform                   82808  7.1    0.119    5.942    0.119    5.942
 mp_comm_rank                   ******* 16.1    3.222    5.840    3.222    5.840
 dbt_pgrid_create_expert         541679 12.9    0.544    0.652    4.866    5.658
 heuristic_RI_regularization          1  7.0    0.001    0.001    5.570    5.571
 dbm_filter                     2497145 14.7    2.991    5.278    2.991    5.278
 dbcsr_work_create              1187812 10.2    3.130    3.670    4.512    5.142
 comm_size                        87451 11.0    0.076    0.084    4.759    5.035
 dbcsr_create_new               1669255  9.8    3.654    4.105    4.565    5.018
 dbt_tas_communicate_buffer     3419726 17.2    2.558    4.865    2.558    4.865
 dbcsr_iterator_start           4227492 10.8    3.788    3.926    4.556    4.720
 qs_ks_update_qs_env                 74  5.0    0.000    0.000    4.463    4.506
 dbt_nd_mp_comm                  270833 11.4    0.314    0.378    3.847    4.495
 comm_data                        87451 11.0    0.168    0.918    1.077    4.493
 mp_bcast_iv                     909420  8.3    4.179    4.398    4.179    4.398
 qs_ks_build_kohn_sham_matrix        77  7.0    0.015    0.016    4.117    4.160
 rebuild_ks_matrix                   74  6.0    0.000    0.000    3.957    4.000
 dbt_tas_reshape_communicate_bu 1834624 16.4    0.624    1.164    2.251    3.885
 copy_fm_to_dbcsr_bc             222017 10.3    1.020    1.081    3.617    3.773
 dbcsr_work_destroy_all         1187812 11.1    2.197    2.622    3.167    3.752
 transfer_pw2rs                     386 10.6    0.002    0.003    3.518    3.588
 sum_up_and_integrate                77  8.0    0.000    0.000    0.580    3.465
 integrate_v_rspace                  77  9.0    0.001    0.005    0.579    3.464
 transfer_pw2rs_250                 155 11.0    0.126    0.142    3.315    3.387
 dbcsr_data_release             ******* 11.7    2.900    3.238    2.900    3.238
 fill_buffer                      87451 11.0    2.366    3.105    2.492    3.234
 qs_rho_update_rho_low               75  5.0    0.001    0.001    3.218    3.221
 calculate_rho_elec                  75  6.0    0.002    0.003    3.215    3.217
 integrate_vhg0_rspace               77  8.0    0.001    0.001    3.088    3.152
 mp_waitall_2                    174902 12.0    0.855    3.121    0.855    3.121
 dbm_scale                      2182445 14.2    1.773    3.118    1.773    3.118
 dbt_tas_reshape_get_coord      1834624 16.4    1.812    3.110    1.812    3.110
 mp_sum_l                       9213401 15.0    1.688    3.109    1.688    3.109
 build_2c_integrals                  34 10.0    0.053    1.585    0.382    3.075
 dbt_create_2c_R                     98  8.0    1.681    2.737    1.990    3.043
 transfer_rs2pw                     379  8.4    0.002    0.003    2.949    2.998
 density_rs2pw                       75  7.0    0.001    0.002    2.914    2.955
 grid_integrate_task_list            77 10.0    0.023    2.906    0.023    2.906
 dbcsr_iterator_stop            4227492 10.8    2.178    2.317    2.722    2.875
 transfer_rs2pw_250                 154 10.0    0.134    0.156    2.786    2.856
 mp_sendrecv_dv                   96645 10.4    2.772    2.823    2.772    2.823
 dbcsr_data_new                 ******* 11.1    2.593    2.738    2.593    2.738
 transform_dmat                   37888  8.0    0.050    2.700    0.050    2.700
 dbcsr_destroy                  1555778  9.6    1.317    1.373    2.570    2.685
 grid_collocate_task_list            75  7.0    0.295    2.615    0.295    2.615
 dbt_copy_matrix_to_tensor       146072 10.0    0.819    0.866    2.479    2.550
 write_kpoints_restart               74  5.0    0.002    0.221    2.498    2.528
 dbt_reserve_blocks_template     211134 12.0    0.155    0.430    0.883    2.501
 reserve_blocks                  146072 11.0    0.350    0.371    2.219    2.434
 mp_bcast_im                     454656  8.3    1.709    1.910    1.709    1.910
 dbt_tas_reshape_alltoall       1834624 16.4    0.571    0.972    1.073    1.826
 dbt_tas_replicate_communicate_  965430 15.9    0.382    0.579    1.060    1.825
 tree_to_linear_d                595606 12.6    1.535    1.684    1.535    1.684
 dbcsr_reserve_blocks            592539 12.2    0.936    1.321    1.187    1.648
 mp_bcast_i                     4777126 17.8    0.822    1.609    0.822    1.609
 copy_dbcsr_to_fm_bc             286757  9.0    0.712    0.777    1.525    1.587
 dbt_distribution_destroy        541676 11.9    1.000    1.208    1.261    1.523
 dbcsr_set                      1577029 10.4    0.745    0.776    1.307    1.497
 quick_finalize                  452373 10.3    0.659    0.832    1.081    1.437
 mp_cart_rank                   3862568 15.8    0.916    1.428    0.916    1.428
 dbt_reserve_blocks_matrix_to_t  146072 11.0    0.398    0.426    1.322    1.360
 dbt_tas_merge_communicate_buff  619672 15.9    0.145    0.377    0.398    1.360
 get_coord                        87451 11.0    0.606    0.748    1.038    1.331
 mp_dims_create                 3961399 14.0    0.806    1.303    0.806    1.303
 ab_contract                    1683714 11.0    0.014    1.179    0.014    1.179
 write_SOC_eigenvalues              148  6.0    0.004    1.107    0.004    1.107
 analyt_conti_and_print            1172  8.0    0.006    1.073    0.044    1.106
 dbcsr_reserve_all_blocks        309468 11.5    0.245    0.261    0.812    1.091
 dbcsr_copy                      189422 10.0    0.364    0.479    0.905    1.076
 compute_V_xc                         1  7.0    0.000    0.000    1.044    1.046
 fill_mat_local                  146072 11.0    0.773    0.855    0.946    1.027
 dbt_copy_tensor_to_matrix        87451 10.0    0.282    0.354    0.895    0.993
 mp_sum_iv                         2368  9.0    0.570    0.943    0.570    0.943
 setup_parallelization_Delta_R        1  7.0    0.000    0.000    0.938    0.939
 compute_n_tensor_ops_Delta_R         1  8.0    0.192    0.416    0.934    0.934
 dbt_tas_replicate_alltoall      965430 15.9    0.326    0.491    0.561    0.897
 dbcsr_iterator_seek            4227492 11.8    0.767    0.896    0.767    0.896
 dbt_buffer_get_index           3419726 16.7    0.492    0.859    0.492    0.859
 dbcsr_distribution_new          508813 10.0    0.685    0.855    0.685    0.855
 mp_max_i                       2876487 11.3    0.447    0.767    0.447    0.767
 dbcsr_zero                     1577029 11.4    0.563    0.732    0.563    0.732
 dbcsr_sort_indices             1191780 12.6    0.354    0.699    0.354    0.699
 add_cfm_submat                   11720  7.0    0.044    0.046    0.514    0.691
 dbt_tas_merge_alltoall          619672 15.9    0.149    0.384    0.266    0.678
 alloc_block_3c                       1  9.0    0.146    0.152    0.641    0.671
 cp_fm_write_unformatted            676  6.0    0.594    0.653    0.594    0.659
 add_to_DOS_PDOS                   4688  6.5    0.636    0.646    0.636    0.646
 cp_fm_to_fm_submat               23440  8.0    0.454    0.631    0.454    0.631
 dbcsr_make_index_exist         1669255 10.8    0.578    0.619    0.578    0.619
 setup_cells_3c                       1  7.0    0.014    0.023    0.590    0.595
 build_3c_integral_block           2471  8.0    0.195    0.415    0.539    0.571
 potential_pw2rs                     77 10.0    0.001    0.001    0.555    0.557
 get_sizes                       146072 11.0    0.346    0.379    0.508    0.541
 dbcsr_copy_into_existing         75945 10.0    0.204    0.312    0.420    0.538
 mp_irecv_im2                   2654466 13.0    0.226    0.537    0.226    0.537
 evaluate_core_matrix_traces         74  6.0    0.000    0.000    0.506    0.506
 calculate_ptrace_kp                148  7.0    0.008    0.009    0.506    0.506
 dbcsr_dot                        25013  8.0    0.045    0.052    0.500    0.500
 mp_bcast_dm                          2  9.5    0.487    0.499    0.487    0.499
 create_qs_kind_set                   1  2.0    0.000    0.000    0.485    0.485
 read_qs_kind                         2  3.0    0.219    0.282    0.485    0.485
 mp_sum_d                         26283  8.8    0.471    0.483    0.471    0.483
 cp_cfm_gemm                       3516  8.0    0.443    0.462    0.443    0.462
 merge_index                     735439 12.7    0.345    0.461    0.345    0.461
 -------------------------------------------------------------------------------

 The number of warnings for this run is : 1
 
 -------------------------------------------------------------------------------
  **** **** ******  **  PROGRAM ENDED AT                 2025-07-18 18:18:53.769
 ***** ** ***  *** **   PROGRAM RAN ON                                  n2cn1149
 **    ****   ******    PROGRAM RAN BY                                  metdyn02
 ***** **    ** ** **   PROGRAM PROCESS ID                               1139839
  **** **  *******  **  PROGRAM STOPPED IN /scratch/hpc-prf-metdyn/metdyn02_Remi
                                           /05_TMD_new/2_MoSe2/SZVnonaug
