 DBCSR| CPU Multiplication driver                                           XSMM (U)
 DBCSR| Multrec recursion limit                                              512 (U)
 DBCSR| Multiplication stack size                                           1000 (D)
 DBCSR| Maximum elements for images                                    UNLIMITED (U)
 DBCSR| Multiplicative factor virtual images                                   1 (U)
 DBCSR| Use multiplication densification                                       T (D)
 DBCSR| Multiplication size stacks                                             3 (U)
 DBCSR| Use memory pool for CPU allocation                                     F (U)
 DBCSR| Number of 3D layers                                               SINGLE (U)
 DBCSR| Use MPI memory allocation                                              F (U)
 DBCSR| Use RMA algorithm                                                      F (U)
 DBCSR| Use Communication thread                                               T (U)
 DBCSR| Communication thread load                                             60 (D)
 DBCSR| MPI: My process id                                                     0
 DBCSR| MPI: Number of processes                                             128
 DBCSR| OMP: Current number of threads                                         8
 DBCSR| OMP: Max number of threads                                             8
 DBCSR| Split modifier for TAS multiplication algorithm                  1.0E+00 (U)


  **** **** ******  **  PROGRAM STARTED AT               2025-09-18 19:34:36.277
 ***** ** ***  *** **   PROGRAM STARTED ON                             n2lcn0135
 **    ****   ******    PROGRAM STARTED BY                              metdyn02
 ***** **    ** ** **   PROGRAM PROCESS ID                                889204
  **** **  *******  **  PROGRAM STARTED IN /scratch/hpc-prf-metdyn/metdyn02_Remi
                                           /05_TMD_new/paperbenchmarksMoS2/kpoin
                                           ts/48

 CP2K| version string:                 CP2K version 2025.2 (Development Version)
 CP2K| source code revision number:                                  git:8d80afc
 CP2K| cp2kflags: omp libint fftw3 libxc libgrpp elpa parallel scalapack mpi_f08
 CP2K|             cosma xsmm plumed2 spglib libvori libbqb libvdwxc hdf5
 CP2K| is freely available from                            https://www.cp2k.org/
 CP2K| Program compiled at                         Mon Sep  8 11:02:08 CEST 2025
 CP2K| Program compiled on                                              n2login1
 CP2K| Program compiled for                                                local
 CP2K| Data directory path    /opt/software/pc2/EB-SW/software/CP2K/2025.2-foss-
 CP2K| Input file name                                                    GW.inp

 GLOBAL| Force Environment number                                              1
 GLOBAL| Basis set file name            /scratch/hpc-prf-metdyn/metdyn02_Remi/05
 GLOBAL| Potential file name                                  GTH_SOC_POTENTIALS
 GLOBAL| MM Potential file name                                     MM_POTENTIAL
 GLOBAL| Coordinate file name                                      __STD_INPUT__
 GLOBAL| Method name                                                        CP2K
 GLOBAL| Project name                                                       WSe2
 GLOBAL| Run type                                                         ENERGY
 GLOBAL| FFT library                                                       FFTW3
 GLOBAL| Diagonalization library                                            ELPA
 GLOBAL| Cholesky decomposition library                                ScaLAPACK
 GLOBAL| DGEMM library                                                      BLAS
 GLOBAL| Minimum number of eigenvectors for ELPA usage                        16
 GLOBAL| Orthonormality check for eigenvectors                          DISABLED
 GLOBAL| Matrix multiplication library                                     COSMA
 GLOBAL| All-to-all communication in single precision                          F
 GLOBAL| FFTs using library dependent lengths                                  F
 GLOBAL| Grid backend                                                       AUTO
 GLOBAL| Global print level                                               MEDIUM
 GLOBAL| MPI I/O enabled                                                       T
 GLOBAL| Total number of message passing processes                           128
 GLOBAL| Number of threads for this process                                    8
 GLOBAL| This output is from process                                           0
 GLOBAL| OpenMP stack size per thread (OMP_STACKSIZE)                    default
 GLOBAL| CPU model name                          AMD EPYC 7763 64-Core Processor
 GLOBAL| CPUID                                                              1002

 MEMORY| system memory details [Kb]
 MEMORY|                        rank 0           min           max       average
 MEMORY| MemTotal           1056620484    1056620440    1056620544    1056620488
 MEMORY| MemFree            1033974008    1027588696    1033974008    1030942822
 MEMORY| Buffers                132256         23524        132256         61910
 MEMORY| Cached               12224980      12224980      18429496      14905169
 MEMORY| Slab                  2363616       2190424       5468088       3389146
 MEMORY| SReclaimable           681632        501372       2189732       1187463
 MEMORY| MemLikelyFree      1047012876    1046368032    1047507188    1047097364


 *** Fundamental physical constants (SI units) ***

 *** Literature: B. J. Mohr and B. N. Taylor,
 ***             CODATA recommended values of the fundamental physical
 ***             constants: 2006, Web Version 5.1
 ***             http://physics.nist.gov/constants

 Speed of light in vacuum [m/s]                             2.99792458000000E+08
 Magnetic constant or permeability of vacuum [N/A**2]       1.25663706143592E-06
 Electric constant or permittivity of vacuum [F/m]          8.85418781762039E-12
 Planck constant (h) [J*s]                                  6.62606896000000E-34
 Planck constant (h-bar) [J*s]                              1.05457162825177E-34
 Elementary charge [C]                                      1.60217648700000E-19
 Electron mass [kg]                                         9.10938215000000E-31
 Electron g factor [ ]                                     -2.00231930436220E+00
 Proton mass [kg]                                           1.67262163700000E-27
 Fine-structure constant                                    7.29735253760000E-03
 Rydberg constant [1/m]                                     1.09737315685270E+07
 Avogadro constant [1/mol]                                  6.02214179000000E+23
 Boltzmann constant [J/K]                                   1.38065040000000E-23
 Atomic mass unit [kg]                                      1.66053878200000E-27
 Bohr radius [m]                                            5.29177208590000E-11

 *** Conversion factors ***

 [u] -> [a.u.]                                              1.82288848426455E+03
 [Angstrom] -> [Bohr] = [a.u.]                              1.88972613288564E+00
 [a.u.] = [Bohr] -> [Angstrom]                              5.29177208590000E-01
 [a.u.] -> [s]                                              2.41888432650478E-17
 [a.u.] -> [fs]                                             2.41888432650478E-02
 [a.u.] -> [J]                                              4.35974393937059E-18
 [a.u.] -> [N]                                              8.23872205491840E-08
 [a.u.] -> [K]                                              3.15774647902944E+05
 [a.u.] -> [kJ/mol]                                         2.62549961709828E+03
 [a.u.] -> [kcal/mol]                                       6.27509468713739E+02
 [a.u.] -> [Pa]                                             2.94210107994716E+13
 [a.u.] -> [bar]                                            2.94210107994716E+08
 [a.u.] -> [atm]                                            2.90362800883016E+08
 [a.u.] -> [eV]                                             2.72113838565563E+01
 [a.u.] -> [Hz]                                             6.57968392072181E+15
 [a.u.] -> [1/cm] (wave numbers)                            2.19474631370540E+05
 [a.u./Bohr**2] -> [1/cm]                                   5.14048714338585E+03
 

 CELL_TOP| Volume [angstrom^3]:                                       131.694613
 CELL_TOP| Vector a [angstrom     3.184     0.000     0.000   |a| =     3.184000
 CELL_TOP| Vector b [angstrom    -1.592     2.757     0.000   |b| =     3.184000
 CELL_TOP| Vector c [angstrom     0.000     0.000    15.000   |c| =    15.000000
 CELL_TOP| Angle (b,c), alpha [degree]:                                90.000000
 CELL_TOP| Angle (a,c), beta  [degree]:                                90.000000
 CELL_TOP| Angle (a,b), gamma [degree]:                               120.000000
 CELL_TOP| Numerically orthorhombic:                                          NO
 CELL_TOP| Periodicity                                                        XY

 GENERATE|  Preliminary Number of Bonds generated:                             0
 GENERATE|  Achieved consistency in connectivity generation.

 CELL| Volume [angstrom^3]:                                           131.694613
 CELL| Vector a [angstrom]:       3.184     0.000     0.000   |a| =     3.184000
 CELL| Vector b [angstrom]:      -1.592     2.757     0.000   |b| =     3.184000
 CELL| Vector c [angstrom]:       0.000     0.000    15.000   |c| =    15.000000
 CELL| Angle (b,c), alpha [degree]:                                    90.000000
 CELL| Angle (a,c), beta  [degree]:                                    90.000000
 CELL| Angle (a,b), gamma [degree]:                                   120.000000
 CELL| Numerically orthorhombic:                                              NO
 CELL| Periodicity                                                            XY

 CELL_REF| Volume [angstrom^3]:                                       131.694613
 CELL_REF| Vector a [angstrom     3.184     0.000     0.000   |a| =     3.184000
 CELL_REF| Vector b [angstrom    -1.592     2.757     0.000   |b| =     3.184000
 CELL_REF| Vector c [angstrom     0.000     0.000    15.000   |c| =    15.000000
 CELL_REF| Angle (b,c), alpha [degree]:                                90.000000
 CELL_REF| Angle (a,c), beta  [degree]:                                90.000000
 CELL_REF| Angle (a,b), gamma [degree]:                               120.000000
 CELL_REF| Numerically orthorhombic:                                          NO
 CELL_REF| Periodicity                                                        XY

 *******************************************************************************
                                    Kpoints
 *******************************************************************************
 BRILLOUIN| K-point scheme                                        Monkhorst-Pack
 BRILLOUIN| K-Point grid                                            48   48    1
 BRILLOUIN| Accuracy in Symmetry determination                      0.100000E-05
 BRILLOUIN| K-Point point group symmetrization                               OFF
 BRILLOUIN| Wavefunction type                                            COMPLEX
 BRILLOUIN| List of Kpoints [2 Pi/Bohr]                                     1152
 BRILLOUIN| Number           Weight            X              Y              Z
 BRILLOUIN|     1           0.00087       -0.48958       -0.48958        0.00000
 BRILLOUIN|     2           0.00087       -0.48958       -0.46875        0.00000
 BRILLOUIN|     3           0.00087       -0.48958       -0.44792        0.00000
 BRILLOUIN|     4           0.00087       -0.48958       -0.42708        0.00000
 BRILLOUIN|     5           0.00087       -0.48958       -0.40625        0.00000
 BRILLOUIN|     6           0.00087       -0.48958       -0.38542        0.00000
 BRILLOUIN|     7           0.00087       -0.48958       -0.36458        0.00000
 BRILLOUIN|     8           0.00087       -0.48958       -0.34375        0.00000
 BRILLOUIN|     9           0.00087       -0.48958       -0.32292        0.00000
 BRILLOUIN|    10           0.00087       -0.48958       -0.30208        0.00000
 BRILLOUIN|    11           0.00087       -0.48958       -0.28125        0.00000
 BRILLOUIN|    12           0.00087       -0.48958       -0.26042        0.00000
 BRILLOUIN|    13           0.00087       -0.48958       -0.23958        0.00000
 BRILLOUIN|    14           0.00087       -0.48958       -0.21875        0.00000
 BRILLOUIN|    15           0.00087       -0.48958       -0.19792        0.00000
 BRILLOUIN|    16           0.00087       -0.48958       -0.17708        0.00000
 BRILLOUIN|    17           0.00087       -0.48958       -0.15625        0.00000
 BRILLOUIN|    18           0.00087       -0.48958       -0.13542        0.00000
 BRILLOUIN|    19           0.00087       -0.48958       -0.11458        0.00000
 BRILLOUIN|    20           0.00087       -0.48958       -0.09375        0.00000
 BRILLOUIN|    21           0.00087       -0.48958       -0.07292        0.00000
 BRILLOUIN|    22           0.00087       -0.48958       -0.05208        0.00000
 BRILLOUIN|    23           0.00087       -0.48958       -0.03125        0.00000
 BRILLOUIN|    24           0.00087       -0.48958       -0.01042        0.00000
 BRILLOUIN|    25           0.00087       -0.48958        0.01042        0.00000
 BRILLOUIN|    26           0.00087       -0.48958        0.03125        0.00000
 BRILLOUIN|    27           0.00087       -0.48958        0.05208        0.00000
 BRILLOUIN|    28           0.00087       -0.48958        0.07292        0.00000
 BRILLOUIN|    29           0.00087       -0.48958        0.09375        0.00000
 BRILLOUIN|    30           0.00087       -0.48958        0.11458        0.00000
 BRILLOUIN|    31           0.00087       -0.48958        0.13542        0.00000
 BRILLOUIN|    32           0.00087       -0.48958        0.15625        0.00000
 BRILLOUIN|    33           0.00087       -0.48958        0.17708        0.00000
 BRILLOUIN|    34           0.00087       -0.48958        0.19792        0.00000
 BRILLOUIN|    35           0.00087       -0.48958        0.21875        0.00000
 BRILLOUIN|    36           0.00087       -0.48958        0.23958        0.00000
 BRILLOUIN|    37           0.00087       -0.48958        0.26042        0.00000
 BRILLOUIN|    38           0.00087       -0.48958        0.28125        0.00000
 BRILLOUIN|    39           0.00087       -0.48958        0.30208        0.00000
 BRILLOUIN|    40           0.00087       -0.48958        0.32292        0.00000
 BRILLOUIN|    41           0.00087       -0.48958        0.34375        0.00000
 BRILLOUIN|    42           0.00087       -0.48958        0.36458        0.00000
 BRILLOUIN|    43           0.00087       -0.48958        0.38542        0.00000
 BRILLOUIN|    44           0.00087       -0.48958        0.40625        0.00000
 BRILLOUIN|    45           0.00087       -0.48958        0.42708        0.00000
 BRILLOUIN|    46           0.00087       -0.48958        0.44792        0.00000
 BRILLOUIN|    47           0.00087       -0.48958        0.46875        0.00000
 BRILLOUIN|    48           0.00087       -0.48958        0.48958        0.00000
 BRILLOUIN|    49           0.00087       -0.46875       -0.48958        0.00000
 BRILLOUIN|    50           0.00087       -0.46875       -0.46875        0.00000
 BRILLOUIN|    51           0.00087       -0.46875       -0.44792        0.00000
 BRILLOUIN|    52           0.00087       -0.46875       -0.42708        0.00000
 BRILLOUIN|    53           0.00087       -0.46875       -0.40625        0.00000
 BRILLOUIN|    54           0.00087       -0.46875       -0.38542        0.00000
 BRILLOUIN|    55           0.00087       -0.46875       -0.36458        0.00000
 BRILLOUIN|    56           0.00087       -0.46875       -0.34375        0.00000
 BRILLOUIN|    57           0.00087       -0.46875       -0.32292        0.00000
 BRILLOUIN|    58           0.00087       -0.46875       -0.30208        0.00000
 BRILLOUIN|    59           0.00087       -0.46875       -0.28125        0.00000
 BRILLOUIN|    60           0.00087       -0.46875       -0.26042        0.00000
 BRILLOUIN|    61           0.00087       -0.46875       -0.23958        0.00000
 BRILLOUIN|    62           0.00087       -0.46875       -0.21875        0.00000
 BRILLOUIN|    63           0.00087       -0.46875       -0.19792        0.00000
 BRILLOUIN|    64           0.00087       -0.46875       -0.17708        0.00000
 BRILLOUIN|    65           0.00087       -0.46875       -0.15625        0.00000
 BRILLOUIN|    66           0.00087       -0.46875       -0.13542        0.00000
 BRILLOUIN|    67           0.00087       -0.46875       -0.11458        0.00000
 BRILLOUIN|    68           0.00087       -0.46875       -0.09375        0.00000
 BRILLOUIN|    69           0.00087       -0.46875       -0.07292        0.00000
 BRILLOUIN|    70           0.00087       -0.46875       -0.05208        0.00000
 BRILLOUIN|    71           0.00087       -0.46875       -0.03125        0.00000
 BRILLOUIN|    72           0.00087       -0.46875       -0.01042        0.00000
 BRILLOUIN|    73           0.00087       -0.46875        0.01042        0.00000
 BRILLOUIN|    74           0.00087       -0.46875        0.03125        0.00000
 BRILLOUIN|    75           0.00087       -0.46875        0.05208        0.00000
 BRILLOUIN|    76           0.00087       -0.46875        0.07292        0.00000
 BRILLOUIN|    77           0.00087       -0.46875        0.09375        0.00000
 BRILLOUIN|    78           0.00087       -0.46875        0.11458        0.00000
 BRILLOUIN|    79           0.00087       -0.46875        0.13542        0.00000
 BRILLOUIN|    80           0.00087       -0.46875        0.15625        0.00000
 BRILLOUIN|    81           0.00087       -0.46875        0.17708        0.00000
 BRILLOUIN|    82           0.00087       -0.46875        0.19792        0.00000
 BRILLOUIN|    83           0.00087       -0.46875        0.21875        0.00000
 BRILLOUIN|    84           0.00087       -0.46875        0.23958        0.00000
 BRILLOUIN|    85           0.00087       -0.46875        0.26042        0.00000
 BRILLOUIN|    86           0.00087       -0.46875        0.28125        0.00000
 BRILLOUIN|    87           0.00087       -0.46875        0.30208        0.00000
 BRILLOUIN|    88           0.00087       -0.46875        0.32292        0.00000
 BRILLOUIN|    89           0.00087       -0.46875        0.34375        0.00000
 BRILLOUIN|    90           0.00087       -0.46875        0.36458        0.00000
 BRILLOUIN|    91           0.00087       -0.46875        0.38542        0.00000
 BRILLOUIN|    92           0.00087       -0.46875        0.40625        0.00000
 BRILLOUIN|    93           0.00087       -0.46875        0.42708        0.00000
 BRILLOUIN|    94           0.00087       -0.46875        0.44792        0.00000
 BRILLOUIN|    95           0.00087       -0.46875        0.46875        0.00000
 BRILLOUIN|    96           0.00087       -0.46875        0.48958        0.00000
 BRILLOUIN|    97           0.00087       -0.44792       -0.48958        0.00000
 BRILLOUIN|    98           0.00087       -0.44792       -0.46875        0.00000
 BRILLOUIN|    99           0.00087       -0.44792       -0.44792        0.00000
 BRILLOUIN|   100           0.00087       -0.44792       -0.42708        0.00000
 BRILLOUIN|   101           0.00087       -0.44792       -0.40625        0.00000
 BRILLOUIN|   102           0.00087       -0.44792       -0.38542        0.00000
 BRILLOUIN|   103           0.00087       -0.44792       -0.36458        0.00000
 BRILLOUIN|   104           0.00087       -0.44792       -0.34375        0.00000
 BRILLOUIN|   105           0.00087       -0.44792       -0.32292        0.00000
 BRILLOUIN|   106           0.00087       -0.44792       -0.30208        0.00000
 BRILLOUIN|   107           0.00087       -0.44792       -0.28125        0.00000
 BRILLOUIN|   108           0.00087       -0.44792       -0.26042        0.00000
 BRILLOUIN|   109           0.00087       -0.44792       -0.23958        0.00000
 BRILLOUIN|   110           0.00087       -0.44792       -0.21875        0.00000
 BRILLOUIN|   111           0.00087       -0.44792       -0.19792        0.00000
 BRILLOUIN|   112           0.00087       -0.44792       -0.17708        0.00000
 BRILLOUIN|   113           0.00087       -0.44792       -0.15625        0.00000
 BRILLOUIN|   114           0.00087       -0.44792       -0.13542        0.00000
 BRILLOUIN|   115           0.00087       -0.44792       -0.11458        0.00000
 BRILLOUIN|   116           0.00087       -0.44792       -0.09375        0.00000
 BRILLOUIN|   117           0.00087       -0.44792       -0.07292        0.00000
 BRILLOUIN|   118           0.00087       -0.44792       -0.05208        0.00000
 BRILLOUIN|   119           0.00087       -0.44792       -0.03125        0.00000
 BRILLOUIN|   120           0.00087       -0.44792       -0.01042        0.00000
 BRILLOUIN|   121           0.00087       -0.44792        0.01042        0.00000
 BRILLOUIN|   122           0.00087       -0.44792        0.03125        0.00000
 BRILLOUIN|   123           0.00087       -0.44792        0.05208        0.00000
 BRILLOUIN|   124           0.00087       -0.44792        0.07292        0.00000
 BRILLOUIN|   125           0.00087       -0.44792        0.09375        0.00000
 BRILLOUIN|   126           0.00087       -0.44792        0.11458        0.00000
 BRILLOUIN|   127           0.00087       -0.44792        0.13542        0.00000
 BRILLOUIN|   128           0.00087       -0.44792        0.15625        0.00000
 BRILLOUIN|   129           0.00087       -0.44792        0.17708        0.00000
 BRILLOUIN|   130           0.00087       -0.44792        0.19792        0.00000
 BRILLOUIN|   131           0.00087       -0.44792        0.21875        0.00000
 BRILLOUIN|   132           0.00087       -0.44792        0.23958        0.00000
 BRILLOUIN|   133           0.00087       -0.44792        0.26042        0.00000
 BRILLOUIN|   134           0.00087       -0.44792        0.28125        0.00000
 BRILLOUIN|   135           0.00087       -0.44792        0.30208        0.00000
 BRILLOUIN|   136           0.00087       -0.44792        0.32292        0.00000
 BRILLOUIN|   137           0.00087       -0.44792        0.34375        0.00000
 BRILLOUIN|   138           0.00087       -0.44792        0.36458        0.00000
 BRILLOUIN|   139           0.00087       -0.44792        0.38542        0.00000
 BRILLOUIN|   140           0.00087       -0.44792        0.40625        0.00000
 BRILLOUIN|   141           0.00087       -0.44792        0.42708        0.00000
 BRILLOUIN|   142           0.00087       -0.44792        0.44792        0.00000
 BRILLOUIN|   143           0.00087       -0.44792        0.46875        0.00000
 BRILLOUIN|   144           0.00087       -0.44792        0.48958        0.00000
 BRILLOUIN|   145           0.00087       -0.42708       -0.48958        0.00000
 BRILLOUIN|   146           0.00087       -0.42708       -0.46875        0.00000
 BRILLOUIN|   147           0.00087       -0.42708       -0.44792        0.00000
 BRILLOUIN|   148           0.00087       -0.42708       -0.42708        0.00000
 BRILLOUIN|   149           0.00087       -0.42708       -0.40625        0.00000
 BRILLOUIN|   150           0.00087       -0.42708       -0.38542        0.00000
 BRILLOUIN|   151           0.00087       -0.42708       -0.36458        0.00000
 BRILLOUIN|   152           0.00087       -0.42708       -0.34375        0.00000
 BRILLOUIN|   153           0.00087       -0.42708       -0.32292        0.00000
 BRILLOUIN|   154           0.00087       -0.42708       -0.30208        0.00000
 BRILLOUIN|   155           0.00087       -0.42708       -0.28125        0.00000
 BRILLOUIN|   156           0.00087       -0.42708       -0.26042        0.00000
 BRILLOUIN|   157           0.00087       -0.42708       -0.23958        0.00000
 BRILLOUIN|   158           0.00087       -0.42708       -0.21875        0.00000
 BRILLOUIN|   159           0.00087       -0.42708       -0.19792        0.00000
 BRILLOUIN|   160           0.00087       -0.42708       -0.17708        0.00000
 BRILLOUIN|   161           0.00087       -0.42708       -0.15625        0.00000
 BRILLOUIN|   162           0.00087       -0.42708       -0.13542        0.00000
 BRILLOUIN|   163           0.00087       -0.42708       -0.11458        0.00000
 BRILLOUIN|   164           0.00087       -0.42708       -0.09375        0.00000
 BRILLOUIN|   165           0.00087       -0.42708       -0.07292        0.00000
 BRILLOUIN|   166           0.00087       -0.42708       -0.05208        0.00000
 BRILLOUIN|   167           0.00087       -0.42708       -0.03125        0.00000
 BRILLOUIN|   168           0.00087       -0.42708       -0.01042        0.00000
 BRILLOUIN|   169           0.00087       -0.42708        0.01042        0.00000
 BRILLOUIN|   170           0.00087       -0.42708        0.03125        0.00000
 BRILLOUIN|   171           0.00087       -0.42708        0.05208        0.00000
 BRILLOUIN|   172           0.00087       -0.42708        0.07292        0.00000
 BRILLOUIN|   173           0.00087       -0.42708        0.09375        0.00000
 BRILLOUIN|   174           0.00087       -0.42708        0.11458        0.00000
 BRILLOUIN|   175           0.00087       -0.42708        0.13542        0.00000
 BRILLOUIN|   176           0.00087       -0.42708        0.15625        0.00000
 BRILLOUIN|   177           0.00087       -0.42708        0.17708        0.00000
 BRILLOUIN|   178           0.00087       -0.42708        0.19792        0.00000
 BRILLOUIN|   179           0.00087       -0.42708        0.21875        0.00000
 BRILLOUIN|   180           0.00087       -0.42708        0.23958        0.00000
 BRILLOUIN|   181           0.00087       -0.42708        0.26042        0.00000
 BRILLOUIN|   182           0.00087       -0.42708        0.28125        0.00000
 BRILLOUIN|   183           0.00087       -0.42708        0.30208        0.00000
 BRILLOUIN|   184           0.00087       -0.42708        0.32292        0.00000
 BRILLOUIN|   185           0.00087       -0.42708        0.34375        0.00000
 BRILLOUIN|   186           0.00087       -0.42708        0.36458        0.00000
 BRILLOUIN|   187           0.00087       -0.42708        0.38542        0.00000
 BRILLOUIN|   188           0.00087       -0.42708        0.40625        0.00000
 BRILLOUIN|   189           0.00087       -0.42708        0.42708        0.00000
 BRILLOUIN|   190           0.00087       -0.42708        0.44792        0.00000
 BRILLOUIN|   191           0.00087       -0.42708        0.46875        0.00000
 BRILLOUIN|   192           0.00087       -0.42708        0.48958        0.00000
 BRILLOUIN|   193           0.00087       -0.40625       -0.48958        0.00000
 BRILLOUIN|   194           0.00087       -0.40625       -0.46875        0.00000
 BRILLOUIN|   195           0.00087       -0.40625       -0.44792        0.00000
 BRILLOUIN|   196           0.00087       -0.40625       -0.42708        0.00000
 BRILLOUIN|   197           0.00087       -0.40625       -0.40625        0.00000
 BRILLOUIN|   198           0.00087       -0.40625       -0.38542        0.00000
 BRILLOUIN|   199           0.00087       -0.40625       -0.36458        0.00000
 BRILLOUIN|   200           0.00087       -0.40625       -0.34375        0.00000
 BRILLOUIN|   201           0.00087       -0.40625       -0.32292        0.00000
 BRILLOUIN|   202           0.00087       -0.40625       -0.30208        0.00000
 BRILLOUIN|   203           0.00087       -0.40625       -0.28125        0.00000
 BRILLOUIN|   204           0.00087       -0.40625       -0.26042        0.00000
 BRILLOUIN|   205           0.00087       -0.40625       -0.23958        0.00000
 BRILLOUIN|   206           0.00087       -0.40625       -0.21875        0.00000
 BRILLOUIN|   207           0.00087       -0.40625       -0.19792        0.00000
 BRILLOUIN|   208           0.00087       -0.40625       -0.17708        0.00000
 BRILLOUIN|   209           0.00087       -0.40625       -0.15625        0.00000
 BRILLOUIN|   210           0.00087       -0.40625       -0.13542        0.00000
 BRILLOUIN|   211           0.00087       -0.40625       -0.11458        0.00000
 BRILLOUIN|   212           0.00087       -0.40625       -0.09375        0.00000
 BRILLOUIN|   213           0.00087       -0.40625       -0.07292        0.00000
 BRILLOUIN|   214           0.00087       -0.40625       -0.05208        0.00000
 BRILLOUIN|   215           0.00087       -0.40625       -0.03125        0.00000
 BRILLOUIN|   216           0.00087       -0.40625       -0.01042        0.00000
 BRILLOUIN|   217           0.00087       -0.40625        0.01042        0.00000
 BRILLOUIN|   218           0.00087       -0.40625        0.03125        0.00000
 BRILLOUIN|   219           0.00087       -0.40625        0.05208        0.00000
 BRILLOUIN|   220           0.00087       -0.40625        0.07292        0.00000
 BRILLOUIN|   221           0.00087       -0.40625        0.09375        0.00000
 BRILLOUIN|   222           0.00087       -0.40625        0.11458        0.00000
 BRILLOUIN|   223           0.00087       -0.40625        0.13542        0.00000
 BRILLOUIN|   224           0.00087       -0.40625        0.15625        0.00000
 BRILLOUIN|   225           0.00087       -0.40625        0.17708        0.00000
 BRILLOUIN|   226           0.00087       -0.40625        0.19792        0.00000
 BRILLOUIN|   227           0.00087       -0.40625        0.21875        0.00000
 BRILLOUIN|   228           0.00087       -0.40625        0.23958        0.00000
 BRILLOUIN|   229           0.00087       -0.40625        0.26042        0.00000
 BRILLOUIN|   230           0.00087       -0.40625        0.28125        0.00000
 BRILLOUIN|   231           0.00087       -0.40625        0.30208        0.00000
 BRILLOUIN|   232           0.00087       -0.40625        0.32292        0.00000
 BRILLOUIN|   233           0.00087       -0.40625        0.34375        0.00000
 BRILLOUIN|   234           0.00087       -0.40625        0.36458        0.00000
 BRILLOUIN|   235           0.00087       -0.40625        0.38542        0.00000
 BRILLOUIN|   236           0.00087       -0.40625        0.40625        0.00000
 BRILLOUIN|   237           0.00087       -0.40625        0.42708        0.00000
 BRILLOUIN|   238           0.00087       -0.40625        0.44792        0.00000
 BRILLOUIN|   239           0.00087       -0.40625        0.46875        0.00000
 BRILLOUIN|   240           0.00087       -0.40625        0.48958        0.00000
 BRILLOUIN|   241           0.00087       -0.38542       -0.48958        0.00000
 BRILLOUIN|   242           0.00087       -0.38542       -0.46875        0.00000
 BRILLOUIN|   243           0.00087       -0.38542       -0.44792        0.00000
 BRILLOUIN|   244           0.00087       -0.38542       -0.42708        0.00000
 BRILLOUIN|   245           0.00087       -0.38542       -0.40625        0.00000
 BRILLOUIN|   246           0.00087       -0.38542       -0.38542        0.00000
 BRILLOUIN|   247           0.00087       -0.38542       -0.36458        0.00000
 BRILLOUIN|   248           0.00087       -0.38542       -0.34375        0.00000
 BRILLOUIN|   249           0.00087       -0.38542       -0.32292        0.00000
 BRILLOUIN|   250           0.00087       -0.38542       -0.30208        0.00000
 BRILLOUIN|   251           0.00087       -0.38542       -0.28125        0.00000
 BRILLOUIN|   252           0.00087       -0.38542       -0.26042        0.00000
 BRILLOUIN|   253           0.00087       -0.38542       -0.23958        0.00000
 BRILLOUIN|   254           0.00087       -0.38542       -0.21875        0.00000
 BRILLOUIN|   255           0.00087       -0.38542       -0.19792        0.00000
 BRILLOUIN|   256           0.00087       -0.38542       -0.17708        0.00000
 BRILLOUIN|   257           0.00087       -0.38542       -0.15625        0.00000
 BRILLOUIN|   258           0.00087       -0.38542       -0.13542        0.00000
 BRILLOUIN|   259           0.00087       -0.38542       -0.11458        0.00000
 BRILLOUIN|   260           0.00087       -0.38542       -0.09375        0.00000
 BRILLOUIN|   261           0.00087       -0.38542       -0.07292        0.00000
 BRILLOUIN|   262           0.00087       -0.38542       -0.05208        0.00000
 BRILLOUIN|   263           0.00087       -0.38542       -0.03125        0.00000
 BRILLOUIN|   264           0.00087       -0.38542       -0.01042        0.00000
 BRILLOUIN|   265           0.00087       -0.38542        0.01042        0.00000
 BRILLOUIN|   266           0.00087       -0.38542        0.03125        0.00000
 BRILLOUIN|   267           0.00087       -0.38542        0.05208        0.00000
 BRILLOUIN|   268           0.00087       -0.38542        0.07292        0.00000
 BRILLOUIN|   269           0.00087       -0.38542        0.09375        0.00000
 BRILLOUIN|   270           0.00087       -0.38542        0.11458        0.00000
 BRILLOUIN|   271           0.00087       -0.38542        0.13542        0.00000
 BRILLOUIN|   272           0.00087       -0.38542        0.15625        0.00000
 BRILLOUIN|   273           0.00087       -0.38542        0.17708        0.00000
 BRILLOUIN|   274           0.00087       -0.38542        0.19792        0.00000
 BRILLOUIN|   275           0.00087       -0.38542        0.21875        0.00000
 BRILLOUIN|   276           0.00087       -0.38542        0.23958        0.00000
 BRILLOUIN|   277           0.00087       -0.38542        0.26042        0.00000
 BRILLOUIN|   278           0.00087       -0.38542        0.28125        0.00000
 BRILLOUIN|   279           0.00087       -0.38542        0.30208        0.00000
 BRILLOUIN|   280           0.00087       -0.38542        0.32292        0.00000
 BRILLOUIN|   281           0.00087       -0.38542        0.34375        0.00000
 BRILLOUIN|   282           0.00087       -0.38542        0.36458        0.00000
 BRILLOUIN|   283           0.00087       -0.38542        0.38542        0.00000
 BRILLOUIN|   284           0.00087       -0.38542        0.40625        0.00000
 BRILLOUIN|   285           0.00087       -0.38542        0.42708        0.00000
 BRILLOUIN|   286           0.00087       -0.38542        0.44792        0.00000
 BRILLOUIN|   287           0.00087       -0.38542        0.46875        0.00000
 BRILLOUIN|   288           0.00087       -0.38542        0.48958        0.00000
 BRILLOUIN|   289           0.00087       -0.36458       -0.48958        0.00000
 BRILLOUIN|   290           0.00087       -0.36458       -0.46875        0.00000
 BRILLOUIN|   291           0.00087       -0.36458       -0.44792        0.00000
 BRILLOUIN|   292           0.00087       -0.36458       -0.42708        0.00000
 BRILLOUIN|   293           0.00087       -0.36458       -0.40625        0.00000
 BRILLOUIN|   294           0.00087       -0.36458       -0.38542        0.00000
 BRILLOUIN|   295           0.00087       -0.36458       -0.36458        0.00000
 BRILLOUIN|   296           0.00087       -0.36458       -0.34375        0.00000
 BRILLOUIN|   297           0.00087       -0.36458       -0.32292        0.00000
 BRILLOUIN|   298           0.00087       -0.36458       -0.30208        0.00000
 BRILLOUIN|   299           0.00087       -0.36458       -0.28125        0.00000
 BRILLOUIN|   300           0.00087       -0.36458       -0.26042        0.00000
 BRILLOUIN|   301           0.00087       -0.36458       -0.23958        0.00000
 BRILLOUIN|   302           0.00087       -0.36458       -0.21875        0.00000
 BRILLOUIN|   303           0.00087       -0.36458       -0.19792        0.00000
 BRILLOUIN|   304           0.00087       -0.36458       -0.17708        0.00000
 BRILLOUIN|   305           0.00087       -0.36458       -0.15625        0.00000
 BRILLOUIN|   306           0.00087       -0.36458       -0.13542        0.00000
 BRILLOUIN|   307           0.00087       -0.36458       -0.11458        0.00000
 BRILLOUIN|   308           0.00087       -0.36458       -0.09375        0.00000
 BRILLOUIN|   309           0.00087       -0.36458       -0.07292        0.00000
 BRILLOUIN|   310           0.00087       -0.36458       -0.05208        0.00000
 BRILLOUIN|   311           0.00087       -0.36458       -0.03125        0.00000
 BRILLOUIN|   312           0.00087       -0.36458       -0.01042        0.00000
 BRILLOUIN|   313           0.00087       -0.36458        0.01042        0.00000
 BRILLOUIN|   314           0.00087       -0.36458        0.03125        0.00000
 BRILLOUIN|   315           0.00087       -0.36458        0.05208        0.00000
 BRILLOUIN|   316           0.00087       -0.36458        0.07292        0.00000
 BRILLOUIN|   317           0.00087       -0.36458        0.09375        0.00000
 BRILLOUIN|   318           0.00087       -0.36458        0.11458        0.00000
 BRILLOUIN|   319           0.00087       -0.36458        0.13542        0.00000
 BRILLOUIN|   320           0.00087       -0.36458        0.15625        0.00000
 BRILLOUIN|   321           0.00087       -0.36458        0.17708        0.00000
 BRILLOUIN|   322           0.00087       -0.36458        0.19792        0.00000
 BRILLOUIN|   323           0.00087       -0.36458        0.21875        0.00000
 BRILLOUIN|   324           0.00087       -0.36458        0.23958        0.00000
 BRILLOUIN|   325           0.00087       -0.36458        0.26042        0.00000
 BRILLOUIN|   326           0.00087       -0.36458        0.28125        0.00000
 BRILLOUIN|   327           0.00087       -0.36458        0.30208        0.00000
 BRILLOUIN|   328           0.00087       -0.36458        0.32292        0.00000
 BRILLOUIN|   329           0.00087       -0.36458        0.34375        0.00000
 BRILLOUIN|   330           0.00087       -0.36458        0.36458        0.00000
 BRILLOUIN|   331           0.00087       -0.36458        0.38542        0.00000
 BRILLOUIN|   332           0.00087       -0.36458        0.40625        0.00000
 BRILLOUIN|   333           0.00087       -0.36458        0.42708        0.00000
 BRILLOUIN|   334           0.00087       -0.36458        0.44792        0.00000
 BRILLOUIN|   335           0.00087       -0.36458        0.46875        0.00000
 BRILLOUIN|   336           0.00087       -0.36458        0.48958        0.00000
 BRILLOUIN|   337           0.00087       -0.34375       -0.48958        0.00000
 BRILLOUIN|   338           0.00087       -0.34375       -0.46875        0.00000
 BRILLOUIN|   339           0.00087       -0.34375       -0.44792        0.00000
 BRILLOUIN|   340           0.00087       -0.34375       -0.42708        0.00000
 BRILLOUIN|   341           0.00087       -0.34375       -0.40625        0.00000
 BRILLOUIN|   342           0.00087       -0.34375       -0.38542        0.00000
 BRILLOUIN|   343           0.00087       -0.34375       -0.36458        0.00000
 BRILLOUIN|   344           0.00087       -0.34375       -0.34375        0.00000
 BRILLOUIN|   345           0.00087       -0.34375       -0.32292        0.00000
 BRILLOUIN|   346           0.00087       -0.34375       -0.30208        0.00000
 BRILLOUIN|   347           0.00087       -0.34375       -0.28125        0.00000
 BRILLOUIN|   348           0.00087       -0.34375       -0.26042        0.00000
 BRILLOUIN|   349           0.00087       -0.34375       -0.23958        0.00000
 BRILLOUIN|   350           0.00087       -0.34375       -0.21875        0.00000
 BRILLOUIN|   351           0.00087       -0.34375       -0.19792        0.00000
 BRILLOUIN|   352           0.00087       -0.34375       -0.17708        0.00000
 BRILLOUIN|   353           0.00087       -0.34375       -0.15625        0.00000
 BRILLOUIN|   354           0.00087       -0.34375       -0.13542        0.00000
 BRILLOUIN|   355           0.00087       -0.34375       -0.11458        0.00000
 BRILLOUIN|   356           0.00087       -0.34375       -0.09375        0.00000
 BRILLOUIN|   357           0.00087       -0.34375       -0.07292        0.00000
 BRILLOUIN|   358           0.00087       -0.34375       -0.05208        0.00000
 BRILLOUIN|   359           0.00087       -0.34375       -0.03125        0.00000
 BRILLOUIN|   360           0.00087       -0.34375       -0.01042        0.00000
 BRILLOUIN|   361           0.00087       -0.34375        0.01042        0.00000
 BRILLOUIN|   362           0.00087       -0.34375        0.03125        0.00000
 BRILLOUIN|   363           0.00087       -0.34375        0.05208        0.00000
 BRILLOUIN|   364           0.00087       -0.34375        0.07292        0.00000
 BRILLOUIN|   365           0.00087       -0.34375        0.09375        0.00000
 BRILLOUIN|   366           0.00087       -0.34375        0.11458        0.00000
 BRILLOUIN|   367           0.00087       -0.34375        0.13542        0.00000
 BRILLOUIN|   368           0.00087       -0.34375        0.15625        0.00000
 BRILLOUIN|   369           0.00087       -0.34375        0.17708        0.00000
 BRILLOUIN|   370           0.00087       -0.34375        0.19792        0.00000
 BRILLOUIN|   371           0.00087       -0.34375        0.21875        0.00000
 BRILLOUIN|   372           0.00087       -0.34375        0.23958        0.00000
 BRILLOUIN|   373           0.00087       -0.34375        0.26042        0.00000
 BRILLOUIN|   374           0.00087       -0.34375        0.28125        0.00000
 BRILLOUIN|   375           0.00087       -0.34375        0.30208        0.00000
 BRILLOUIN|   376           0.00087       -0.34375        0.32292        0.00000
 BRILLOUIN|   377           0.00087       -0.34375        0.34375        0.00000
 BRILLOUIN|   378           0.00087       -0.34375        0.36458        0.00000
 BRILLOUIN|   379           0.00087       -0.34375        0.38542        0.00000
 BRILLOUIN|   380           0.00087       -0.34375        0.40625        0.00000
 BRILLOUIN|   381           0.00087       -0.34375        0.42708        0.00000
 BRILLOUIN|   382           0.00087       -0.34375        0.44792        0.00000
 BRILLOUIN|   383           0.00087       -0.34375        0.46875        0.00000
 BRILLOUIN|   384           0.00087       -0.34375        0.48958        0.00000
 BRILLOUIN|   385           0.00087       -0.32292       -0.48958        0.00000
 BRILLOUIN|   386           0.00087       -0.32292       -0.46875        0.00000
 BRILLOUIN|   387           0.00087       -0.32292       -0.44792        0.00000
 BRILLOUIN|   388           0.00087       -0.32292       -0.42708        0.00000
 BRILLOUIN|   389           0.00087       -0.32292       -0.40625        0.00000
 BRILLOUIN|   390           0.00087       -0.32292       -0.38542        0.00000
 BRILLOUIN|   391           0.00087       -0.32292       -0.36458        0.00000
 BRILLOUIN|   392           0.00087       -0.32292       -0.34375        0.00000
 BRILLOUIN|   393           0.00087       -0.32292       -0.32292        0.00000
 BRILLOUIN|   394           0.00087       -0.32292       -0.30208        0.00000
 BRILLOUIN|   395           0.00087       -0.32292       -0.28125        0.00000
 BRILLOUIN|   396           0.00087       -0.32292       -0.26042        0.00000
 BRILLOUIN|   397           0.00087       -0.32292       -0.23958        0.00000
 BRILLOUIN|   398           0.00087       -0.32292       -0.21875        0.00000
 BRILLOUIN|   399           0.00087       -0.32292       -0.19792        0.00000
 BRILLOUIN|   400           0.00087       -0.32292       -0.17708        0.00000
 BRILLOUIN|   401           0.00087       -0.32292       -0.15625        0.00000
 BRILLOUIN|   402           0.00087       -0.32292       -0.13542        0.00000
 BRILLOUIN|   403           0.00087       -0.32292       -0.11458        0.00000
 BRILLOUIN|   404           0.00087       -0.32292       -0.09375        0.00000
 BRILLOUIN|   405           0.00087       -0.32292       -0.07292        0.00000
 BRILLOUIN|   406           0.00087       -0.32292       -0.05208        0.00000
 BRILLOUIN|   407           0.00087       -0.32292       -0.03125        0.00000
 BRILLOUIN|   408           0.00087       -0.32292       -0.01042        0.00000
 BRILLOUIN|   409           0.00087       -0.32292        0.01042        0.00000
 BRILLOUIN|   410           0.00087       -0.32292        0.03125        0.00000
 BRILLOUIN|   411           0.00087       -0.32292        0.05208        0.00000
 BRILLOUIN|   412           0.00087       -0.32292        0.07292        0.00000
 BRILLOUIN|   413           0.00087       -0.32292        0.09375        0.00000
 BRILLOUIN|   414           0.00087       -0.32292        0.11458        0.00000
 BRILLOUIN|   415           0.00087       -0.32292        0.13542        0.00000
 BRILLOUIN|   416           0.00087       -0.32292        0.15625        0.00000
 BRILLOUIN|   417           0.00087       -0.32292        0.17708        0.00000
 BRILLOUIN|   418           0.00087       -0.32292        0.19792        0.00000
 BRILLOUIN|   419           0.00087       -0.32292        0.21875        0.00000
 BRILLOUIN|   420           0.00087       -0.32292        0.23958        0.00000
 BRILLOUIN|   421           0.00087       -0.32292        0.26042        0.00000
 BRILLOUIN|   422           0.00087       -0.32292        0.28125        0.00000
 BRILLOUIN|   423           0.00087       -0.32292        0.30208        0.00000
 BRILLOUIN|   424           0.00087       -0.32292        0.32292        0.00000
 BRILLOUIN|   425           0.00087       -0.32292        0.34375        0.00000
 BRILLOUIN|   426           0.00087       -0.32292        0.36458        0.00000
 BRILLOUIN|   427           0.00087       -0.32292        0.38542        0.00000
 BRILLOUIN|   428           0.00087       -0.32292        0.40625        0.00000
 BRILLOUIN|   429           0.00087       -0.32292        0.42708        0.00000
 BRILLOUIN|   430           0.00087       -0.32292        0.44792        0.00000
 BRILLOUIN|   431           0.00087       -0.32292        0.46875        0.00000
 BRILLOUIN|   432           0.00087       -0.32292        0.48958        0.00000
 BRILLOUIN|   433           0.00087       -0.30208       -0.48958        0.00000
 BRILLOUIN|   434           0.00087       -0.30208       -0.46875        0.00000
 BRILLOUIN|   435           0.00087       -0.30208       -0.44792        0.00000
 BRILLOUIN|   436           0.00087       -0.30208       -0.42708        0.00000
 BRILLOUIN|   437           0.00087       -0.30208       -0.40625        0.00000
 BRILLOUIN|   438           0.00087       -0.30208       -0.38542        0.00000
 BRILLOUIN|   439           0.00087       -0.30208       -0.36458        0.00000
 BRILLOUIN|   440           0.00087       -0.30208       -0.34375        0.00000
 BRILLOUIN|   441           0.00087       -0.30208       -0.32292        0.00000
 BRILLOUIN|   442           0.00087       -0.30208       -0.30208        0.00000
 BRILLOUIN|   443           0.00087       -0.30208       -0.28125        0.00000
 BRILLOUIN|   444           0.00087       -0.30208       -0.26042        0.00000
 BRILLOUIN|   445           0.00087       -0.30208       -0.23958        0.00000
 BRILLOUIN|   446           0.00087       -0.30208       -0.21875        0.00000
 BRILLOUIN|   447           0.00087       -0.30208       -0.19792        0.00000
 BRILLOUIN|   448           0.00087       -0.30208       -0.17708        0.00000
 BRILLOUIN|   449           0.00087       -0.30208       -0.15625        0.00000
 BRILLOUIN|   450           0.00087       -0.30208       -0.13542        0.00000
 BRILLOUIN|   451           0.00087       -0.30208       -0.11458        0.00000
 BRILLOUIN|   452           0.00087       -0.30208       -0.09375        0.00000
 BRILLOUIN|   453           0.00087       -0.30208       -0.07292        0.00000
 BRILLOUIN|   454           0.00087       -0.30208       -0.05208        0.00000
 BRILLOUIN|   455           0.00087       -0.30208       -0.03125        0.00000
 BRILLOUIN|   456           0.00087       -0.30208       -0.01042        0.00000
 BRILLOUIN|   457           0.00087       -0.30208        0.01042        0.00000
 BRILLOUIN|   458           0.00087       -0.30208        0.03125        0.00000
 BRILLOUIN|   459           0.00087       -0.30208        0.05208        0.00000
 BRILLOUIN|   460           0.00087       -0.30208        0.07292        0.00000
 BRILLOUIN|   461           0.00087       -0.30208        0.09375        0.00000
 BRILLOUIN|   462           0.00087       -0.30208        0.11458        0.00000
 BRILLOUIN|   463           0.00087       -0.30208        0.13542        0.00000
 BRILLOUIN|   464           0.00087       -0.30208        0.15625        0.00000
 BRILLOUIN|   465           0.00087       -0.30208        0.17708        0.00000
 BRILLOUIN|   466           0.00087       -0.30208        0.19792        0.00000
 BRILLOUIN|   467           0.00087       -0.30208        0.21875        0.00000
 BRILLOUIN|   468           0.00087       -0.30208        0.23958        0.00000
 BRILLOUIN|   469           0.00087       -0.30208        0.26042        0.00000
 BRILLOUIN|   470           0.00087       -0.30208        0.28125        0.00000
 BRILLOUIN|   471           0.00087       -0.30208        0.30208        0.00000
 BRILLOUIN|   472           0.00087       -0.30208        0.32292        0.00000
 BRILLOUIN|   473           0.00087       -0.30208        0.34375        0.00000
 BRILLOUIN|   474           0.00087       -0.30208        0.36458        0.00000
 BRILLOUIN|   475           0.00087       -0.30208        0.38542        0.00000
 BRILLOUIN|   476           0.00087       -0.30208        0.40625        0.00000
 BRILLOUIN|   477           0.00087       -0.30208        0.42708        0.00000
 BRILLOUIN|   478           0.00087       -0.30208        0.44792        0.00000
 BRILLOUIN|   479           0.00087       -0.30208        0.46875        0.00000
 BRILLOUIN|   480           0.00087       -0.30208        0.48958        0.00000
 BRILLOUIN|   481           0.00087       -0.28125       -0.48958        0.00000
 BRILLOUIN|   482           0.00087       -0.28125       -0.46875        0.00000
 BRILLOUIN|   483           0.00087       -0.28125       -0.44792        0.00000
 BRILLOUIN|   484           0.00087       -0.28125       -0.42708        0.00000
 BRILLOUIN|   485           0.00087       -0.28125       -0.40625        0.00000
 BRILLOUIN|   486           0.00087       -0.28125       -0.38542        0.00000
 BRILLOUIN|   487           0.00087       -0.28125       -0.36458        0.00000
 BRILLOUIN|   488           0.00087       -0.28125       -0.34375        0.00000
 BRILLOUIN|   489           0.00087       -0.28125       -0.32292        0.00000
 BRILLOUIN|   490           0.00087       -0.28125       -0.30208        0.00000
 BRILLOUIN|   491           0.00087       -0.28125       -0.28125        0.00000
 BRILLOUIN|   492           0.00087       -0.28125       -0.26042        0.00000
 BRILLOUIN|   493           0.00087       -0.28125       -0.23958        0.00000
 BRILLOUIN|   494           0.00087       -0.28125       -0.21875        0.00000
 BRILLOUIN|   495           0.00087       -0.28125       -0.19792        0.00000
 BRILLOUIN|   496           0.00087       -0.28125       -0.17708        0.00000
 BRILLOUIN|   497           0.00087       -0.28125       -0.15625        0.00000
 BRILLOUIN|   498           0.00087       -0.28125       -0.13542        0.00000
 BRILLOUIN|   499           0.00087       -0.28125       -0.11458        0.00000
 BRILLOUIN|   500           0.00087       -0.28125       -0.09375        0.00000
 BRILLOUIN|   501           0.00087       -0.28125       -0.07292        0.00000
 BRILLOUIN|   502           0.00087       -0.28125       -0.05208        0.00000
 BRILLOUIN|   503           0.00087       -0.28125       -0.03125        0.00000
 BRILLOUIN|   504           0.00087       -0.28125       -0.01042        0.00000
 BRILLOUIN|   505           0.00087       -0.28125        0.01042        0.00000
 BRILLOUIN|   506           0.00087       -0.28125        0.03125        0.00000
 BRILLOUIN|   507           0.00087       -0.28125        0.05208        0.00000
 BRILLOUIN|   508           0.00087       -0.28125        0.07292        0.00000
 BRILLOUIN|   509           0.00087       -0.28125        0.09375        0.00000
 BRILLOUIN|   510           0.00087       -0.28125        0.11458        0.00000
 BRILLOUIN|   511           0.00087       -0.28125        0.13542        0.00000
 BRILLOUIN|   512           0.00087       -0.28125        0.15625        0.00000
 BRILLOUIN|   513           0.00087       -0.28125        0.17708        0.00000
 BRILLOUIN|   514           0.00087       -0.28125        0.19792        0.00000
 BRILLOUIN|   515           0.00087       -0.28125        0.21875        0.00000
 BRILLOUIN|   516           0.00087       -0.28125        0.23958        0.00000
 BRILLOUIN|   517           0.00087       -0.28125        0.26042        0.00000
 BRILLOUIN|   518           0.00087       -0.28125        0.28125        0.00000
 BRILLOUIN|   519           0.00087       -0.28125        0.30208        0.00000
 BRILLOUIN|   520           0.00087       -0.28125        0.32292        0.00000
 BRILLOUIN|   521           0.00087       -0.28125        0.34375        0.00000
 BRILLOUIN|   522           0.00087       -0.28125        0.36458        0.00000
 BRILLOUIN|   523           0.00087       -0.28125        0.38542        0.00000
 BRILLOUIN|   524           0.00087       -0.28125        0.40625        0.00000
 BRILLOUIN|   525           0.00087       -0.28125        0.42708        0.00000
 BRILLOUIN|   526           0.00087       -0.28125        0.44792        0.00000
 BRILLOUIN|   527           0.00087       -0.28125        0.46875        0.00000
 BRILLOUIN|   528           0.00087       -0.28125        0.48958        0.00000
 BRILLOUIN|   529           0.00087       -0.26042       -0.48958        0.00000
 BRILLOUIN|   530           0.00087       -0.26042       -0.46875        0.00000
 BRILLOUIN|   531           0.00087       -0.26042       -0.44792        0.00000
 BRILLOUIN|   532           0.00087       -0.26042       -0.42708        0.00000
 BRILLOUIN|   533           0.00087       -0.26042       -0.40625        0.00000
 BRILLOUIN|   534           0.00087       -0.26042       -0.38542        0.00000
 BRILLOUIN|   535           0.00087       -0.26042       -0.36458        0.00000
 BRILLOUIN|   536           0.00087       -0.26042       -0.34375        0.00000
 BRILLOUIN|   537           0.00087       -0.26042       -0.32292        0.00000
 BRILLOUIN|   538           0.00087       -0.26042       -0.30208        0.00000
 BRILLOUIN|   539           0.00087       -0.26042       -0.28125        0.00000
 BRILLOUIN|   540           0.00087       -0.26042       -0.26042        0.00000
 BRILLOUIN|   541           0.00087       -0.26042       -0.23958        0.00000
 BRILLOUIN|   542           0.00087       -0.26042       -0.21875        0.00000
 BRILLOUIN|   543           0.00087       -0.26042       -0.19792        0.00000
 BRILLOUIN|   544           0.00087       -0.26042       -0.17708        0.00000
 BRILLOUIN|   545           0.00087       -0.26042       -0.15625        0.00000
 BRILLOUIN|   546           0.00087       -0.26042       -0.13542        0.00000
 BRILLOUIN|   547           0.00087       -0.26042       -0.11458        0.00000
 BRILLOUIN|   548           0.00087       -0.26042       -0.09375        0.00000
 BRILLOUIN|   549           0.00087       -0.26042       -0.07292        0.00000
 BRILLOUIN|   550           0.00087       -0.26042       -0.05208        0.00000
 BRILLOUIN|   551           0.00087       -0.26042       -0.03125        0.00000
 BRILLOUIN|   552           0.00087       -0.26042       -0.01042        0.00000
 BRILLOUIN|   553           0.00087       -0.26042        0.01042        0.00000
 BRILLOUIN|   554           0.00087       -0.26042        0.03125        0.00000
 BRILLOUIN|   555           0.00087       -0.26042        0.05208        0.00000
 BRILLOUIN|   556           0.00087       -0.26042        0.07292        0.00000
 BRILLOUIN|   557           0.00087       -0.26042        0.09375        0.00000
 BRILLOUIN|   558           0.00087       -0.26042        0.11458        0.00000
 BRILLOUIN|   559           0.00087       -0.26042        0.13542        0.00000
 BRILLOUIN|   560           0.00087       -0.26042        0.15625        0.00000
 BRILLOUIN|   561           0.00087       -0.26042        0.17708        0.00000
 BRILLOUIN|   562           0.00087       -0.26042        0.19792        0.00000
 BRILLOUIN|   563           0.00087       -0.26042        0.21875        0.00000
 BRILLOUIN|   564           0.00087       -0.26042        0.23958        0.00000
 BRILLOUIN|   565           0.00087       -0.26042        0.26042        0.00000
 BRILLOUIN|   566           0.00087       -0.26042        0.28125        0.00000
 BRILLOUIN|   567           0.00087       -0.26042        0.30208        0.00000
 BRILLOUIN|   568           0.00087       -0.26042        0.32292        0.00000
 BRILLOUIN|   569           0.00087       -0.26042        0.34375        0.00000
 BRILLOUIN|   570           0.00087       -0.26042        0.36458        0.00000
 BRILLOUIN|   571           0.00087       -0.26042        0.38542        0.00000
 BRILLOUIN|   572           0.00087       -0.26042        0.40625        0.00000
 BRILLOUIN|   573           0.00087       -0.26042        0.42708        0.00000
 BRILLOUIN|   574           0.00087       -0.26042        0.44792        0.00000
 BRILLOUIN|   575           0.00087       -0.26042        0.46875        0.00000
 BRILLOUIN|   576           0.00087       -0.26042        0.48958        0.00000
 BRILLOUIN|   577           0.00087       -0.23958       -0.48958        0.00000
 BRILLOUIN|   578           0.00087       -0.23958       -0.46875        0.00000
 BRILLOUIN|   579           0.00087       -0.23958       -0.44792        0.00000
 BRILLOUIN|   580           0.00087       -0.23958       -0.42708        0.00000
 BRILLOUIN|   581           0.00087       -0.23958       -0.40625        0.00000
 BRILLOUIN|   582           0.00087       -0.23958       -0.38542        0.00000
 BRILLOUIN|   583           0.00087       -0.23958       -0.36458        0.00000
 BRILLOUIN|   584           0.00087       -0.23958       -0.34375        0.00000
 BRILLOUIN|   585           0.00087       -0.23958       -0.32292        0.00000
 BRILLOUIN|   586           0.00087       -0.23958       -0.30208        0.00000
 BRILLOUIN|   587           0.00087       -0.23958       -0.28125        0.00000
 BRILLOUIN|   588           0.00087       -0.23958       -0.26042        0.00000
 BRILLOUIN|   589           0.00087       -0.23958       -0.23958        0.00000
 BRILLOUIN|   590           0.00087       -0.23958       -0.21875        0.00000
 BRILLOUIN|   591           0.00087       -0.23958       -0.19792        0.00000
 BRILLOUIN|   592           0.00087       -0.23958       -0.17708        0.00000
 BRILLOUIN|   593           0.00087       -0.23958       -0.15625        0.00000
 BRILLOUIN|   594           0.00087       -0.23958       -0.13542        0.00000
 BRILLOUIN|   595           0.00087       -0.23958       -0.11458        0.00000
 BRILLOUIN|   596           0.00087       -0.23958       -0.09375        0.00000
 BRILLOUIN|   597           0.00087       -0.23958       -0.07292        0.00000
 BRILLOUIN|   598           0.00087       -0.23958       -0.05208        0.00000
 BRILLOUIN|   599           0.00087       -0.23958       -0.03125        0.00000
 BRILLOUIN|   600           0.00087       -0.23958       -0.01042        0.00000
 BRILLOUIN|   601           0.00087       -0.23958        0.01042        0.00000
 BRILLOUIN|   602           0.00087       -0.23958        0.03125        0.00000
 BRILLOUIN|   603           0.00087       -0.23958        0.05208        0.00000
 BRILLOUIN|   604           0.00087       -0.23958        0.07292        0.00000
 BRILLOUIN|   605           0.00087       -0.23958        0.09375        0.00000
 BRILLOUIN|   606           0.00087       -0.23958        0.11458        0.00000
 BRILLOUIN|   607           0.00087       -0.23958        0.13542        0.00000
 BRILLOUIN|   608           0.00087       -0.23958        0.15625        0.00000
 BRILLOUIN|   609           0.00087       -0.23958        0.17708        0.00000
 BRILLOUIN|   610           0.00087       -0.23958        0.19792        0.00000
 BRILLOUIN|   611           0.00087       -0.23958        0.21875        0.00000
 BRILLOUIN|   612           0.00087       -0.23958        0.23958        0.00000
 BRILLOUIN|   613           0.00087       -0.23958        0.26042        0.00000
 BRILLOUIN|   614           0.00087       -0.23958        0.28125        0.00000
 BRILLOUIN|   615           0.00087       -0.23958        0.30208        0.00000
 BRILLOUIN|   616           0.00087       -0.23958        0.32292        0.00000
 BRILLOUIN|   617           0.00087       -0.23958        0.34375        0.00000
 BRILLOUIN|   618           0.00087       -0.23958        0.36458        0.00000
 BRILLOUIN|   619           0.00087       -0.23958        0.38542        0.00000
 BRILLOUIN|   620           0.00087       -0.23958        0.40625        0.00000
 BRILLOUIN|   621           0.00087       -0.23958        0.42708        0.00000
 BRILLOUIN|   622           0.00087       -0.23958        0.44792        0.00000
 BRILLOUIN|   623           0.00087       -0.23958        0.46875        0.00000
 BRILLOUIN|   624           0.00087       -0.23958        0.48958        0.00000
 BRILLOUIN|   625           0.00087       -0.21875       -0.48958        0.00000
 BRILLOUIN|   626           0.00087       -0.21875       -0.46875        0.00000
 BRILLOUIN|   627           0.00087       -0.21875       -0.44792        0.00000
 BRILLOUIN|   628           0.00087       -0.21875       -0.42708        0.00000
 BRILLOUIN|   629           0.00087       -0.21875       -0.40625        0.00000
 BRILLOUIN|   630           0.00087       -0.21875       -0.38542        0.00000
 BRILLOUIN|   631           0.00087       -0.21875       -0.36458        0.00000
 BRILLOUIN|   632           0.00087       -0.21875       -0.34375        0.00000
 BRILLOUIN|   633           0.00087       -0.21875       -0.32292        0.00000
 BRILLOUIN|   634           0.00087       -0.21875       -0.30208        0.00000
 BRILLOUIN|   635           0.00087       -0.21875       -0.28125        0.00000
 BRILLOUIN|   636           0.00087       -0.21875       -0.26042        0.00000
 BRILLOUIN|   637           0.00087       -0.21875       -0.23958        0.00000
 BRILLOUIN|   638           0.00087       -0.21875       -0.21875        0.00000
 BRILLOUIN|   639           0.00087       -0.21875       -0.19792        0.00000
 BRILLOUIN|   640           0.00087       -0.21875       -0.17708        0.00000
 BRILLOUIN|   641           0.00087       -0.21875       -0.15625        0.00000
 BRILLOUIN|   642           0.00087       -0.21875       -0.13542        0.00000
 BRILLOUIN|   643           0.00087       -0.21875       -0.11458        0.00000
 BRILLOUIN|   644           0.00087       -0.21875       -0.09375        0.00000
 BRILLOUIN|   645           0.00087       -0.21875       -0.07292        0.00000
 BRILLOUIN|   646           0.00087       -0.21875       -0.05208        0.00000
 BRILLOUIN|   647           0.00087       -0.21875       -0.03125        0.00000
 BRILLOUIN|   648           0.00087       -0.21875       -0.01042        0.00000
 BRILLOUIN|   649           0.00087       -0.21875        0.01042        0.00000
 BRILLOUIN|   650           0.00087       -0.21875        0.03125        0.00000
 BRILLOUIN|   651           0.00087       -0.21875        0.05208        0.00000
 BRILLOUIN|   652           0.00087       -0.21875        0.07292        0.00000
 BRILLOUIN|   653           0.00087       -0.21875        0.09375        0.00000
 BRILLOUIN|   654           0.00087       -0.21875        0.11458        0.00000
 BRILLOUIN|   655           0.00087       -0.21875        0.13542        0.00000
 BRILLOUIN|   656           0.00087       -0.21875        0.15625        0.00000
 BRILLOUIN|   657           0.00087       -0.21875        0.17708        0.00000
 BRILLOUIN|   658           0.00087       -0.21875        0.19792        0.00000
 BRILLOUIN|   659           0.00087       -0.21875        0.21875        0.00000
 BRILLOUIN|   660           0.00087       -0.21875        0.23958        0.00000
 BRILLOUIN|   661           0.00087       -0.21875        0.26042        0.00000
 BRILLOUIN|   662           0.00087       -0.21875        0.28125        0.00000
 BRILLOUIN|   663           0.00087       -0.21875        0.30208        0.00000
 BRILLOUIN|   664           0.00087       -0.21875        0.32292        0.00000
 BRILLOUIN|   665           0.00087       -0.21875        0.34375        0.00000
 BRILLOUIN|   666           0.00087       -0.21875        0.36458        0.00000
 BRILLOUIN|   667           0.00087       -0.21875        0.38542        0.00000
 BRILLOUIN|   668           0.00087       -0.21875        0.40625        0.00000
 BRILLOUIN|   669           0.00087       -0.21875        0.42708        0.00000
 BRILLOUIN|   670           0.00087       -0.21875        0.44792        0.00000
 BRILLOUIN|   671           0.00087       -0.21875        0.46875        0.00000
 BRILLOUIN|   672           0.00087       -0.21875        0.48958        0.00000
 BRILLOUIN|   673           0.00087       -0.19792       -0.48958        0.00000
 BRILLOUIN|   674           0.00087       -0.19792       -0.46875        0.00000
 BRILLOUIN|   675           0.00087       -0.19792       -0.44792        0.00000
 BRILLOUIN|   676           0.00087       -0.19792       -0.42708        0.00000
 BRILLOUIN|   677           0.00087       -0.19792       -0.40625        0.00000
 BRILLOUIN|   678           0.00087       -0.19792       -0.38542        0.00000
 BRILLOUIN|   679           0.00087       -0.19792       -0.36458        0.00000
 BRILLOUIN|   680           0.00087       -0.19792       -0.34375        0.00000
 BRILLOUIN|   681           0.00087       -0.19792       -0.32292        0.00000
 BRILLOUIN|   682           0.00087       -0.19792       -0.30208        0.00000
 BRILLOUIN|   683           0.00087       -0.19792       -0.28125        0.00000
 BRILLOUIN|   684           0.00087       -0.19792       -0.26042        0.00000
 BRILLOUIN|   685           0.00087       -0.19792       -0.23958        0.00000
 BRILLOUIN|   686           0.00087       -0.19792       -0.21875        0.00000
 BRILLOUIN|   687           0.00087       -0.19792       -0.19792        0.00000
 BRILLOUIN|   688           0.00087       -0.19792       -0.17708        0.00000
 BRILLOUIN|   689           0.00087       -0.19792       -0.15625        0.00000
 BRILLOUIN|   690           0.00087       -0.19792       -0.13542        0.00000
 BRILLOUIN|   691           0.00087       -0.19792       -0.11458        0.00000
 BRILLOUIN|   692           0.00087       -0.19792       -0.09375        0.00000
 BRILLOUIN|   693           0.00087       -0.19792       -0.07292        0.00000
 BRILLOUIN|   694           0.00087       -0.19792       -0.05208        0.00000
 BRILLOUIN|   695           0.00087       -0.19792       -0.03125        0.00000
 BRILLOUIN|   696           0.00087       -0.19792       -0.01042        0.00000
 BRILLOUIN|   697           0.00087       -0.19792        0.01042        0.00000
 BRILLOUIN|   698           0.00087       -0.19792        0.03125        0.00000
 BRILLOUIN|   699           0.00087       -0.19792        0.05208        0.00000
 BRILLOUIN|   700           0.00087       -0.19792        0.07292        0.00000
 BRILLOUIN|   701           0.00087       -0.19792        0.09375        0.00000
 BRILLOUIN|   702           0.00087       -0.19792        0.11458        0.00000
 BRILLOUIN|   703           0.00087       -0.19792        0.13542        0.00000
 BRILLOUIN|   704           0.00087       -0.19792        0.15625        0.00000
 BRILLOUIN|   705           0.00087       -0.19792        0.17708        0.00000
 BRILLOUIN|   706           0.00087       -0.19792        0.19792        0.00000
 BRILLOUIN|   707           0.00087       -0.19792        0.21875        0.00000
 BRILLOUIN|   708           0.00087       -0.19792        0.23958        0.00000
 BRILLOUIN|   709           0.00087       -0.19792        0.26042        0.00000
 BRILLOUIN|   710           0.00087       -0.19792        0.28125        0.00000
 BRILLOUIN|   711           0.00087       -0.19792        0.30208        0.00000
 BRILLOUIN|   712           0.00087       -0.19792        0.32292        0.00000
 BRILLOUIN|   713           0.00087       -0.19792        0.34375        0.00000
 BRILLOUIN|   714           0.00087       -0.19792        0.36458        0.00000
 BRILLOUIN|   715           0.00087       -0.19792        0.38542        0.00000
 BRILLOUIN|   716           0.00087       -0.19792        0.40625        0.00000
 BRILLOUIN|   717           0.00087       -0.19792        0.42708        0.00000
 BRILLOUIN|   718           0.00087       -0.19792        0.44792        0.00000
 BRILLOUIN|   719           0.00087       -0.19792        0.46875        0.00000
 BRILLOUIN|   720           0.00087       -0.19792        0.48958        0.00000
 BRILLOUIN|   721           0.00087       -0.17708       -0.48958        0.00000
 BRILLOUIN|   722           0.00087       -0.17708       -0.46875        0.00000
 BRILLOUIN|   723           0.00087       -0.17708       -0.44792        0.00000
 BRILLOUIN|   724           0.00087       -0.17708       -0.42708        0.00000
 BRILLOUIN|   725           0.00087       -0.17708       -0.40625        0.00000
 BRILLOUIN|   726           0.00087       -0.17708       -0.38542        0.00000
 BRILLOUIN|   727           0.00087       -0.17708       -0.36458        0.00000
 BRILLOUIN|   728           0.00087       -0.17708       -0.34375        0.00000
 BRILLOUIN|   729           0.00087       -0.17708       -0.32292        0.00000
 BRILLOUIN|   730           0.00087       -0.17708       -0.30208        0.00000
 BRILLOUIN|   731           0.00087       -0.17708       -0.28125        0.00000
 BRILLOUIN|   732           0.00087       -0.17708       -0.26042        0.00000
 BRILLOUIN|   733           0.00087       -0.17708       -0.23958        0.00000
 BRILLOUIN|   734           0.00087       -0.17708       -0.21875        0.00000
 BRILLOUIN|   735           0.00087       -0.17708       -0.19792        0.00000
 BRILLOUIN|   736           0.00087       -0.17708       -0.17708        0.00000
 BRILLOUIN|   737           0.00087       -0.17708       -0.15625        0.00000
 BRILLOUIN|   738           0.00087       -0.17708       -0.13542        0.00000
 BRILLOUIN|   739           0.00087       -0.17708       -0.11458        0.00000
 BRILLOUIN|   740           0.00087       -0.17708       -0.09375        0.00000
 BRILLOUIN|   741           0.00087       -0.17708       -0.07292        0.00000
 BRILLOUIN|   742           0.00087       -0.17708       -0.05208        0.00000
 BRILLOUIN|   743           0.00087       -0.17708       -0.03125        0.00000
 BRILLOUIN|   744           0.00087       -0.17708       -0.01042        0.00000
 BRILLOUIN|   745           0.00087       -0.17708        0.01042        0.00000
 BRILLOUIN|   746           0.00087       -0.17708        0.03125        0.00000
 BRILLOUIN|   747           0.00087       -0.17708        0.05208        0.00000
 BRILLOUIN|   748           0.00087       -0.17708        0.07292        0.00000
 BRILLOUIN|   749           0.00087       -0.17708        0.09375        0.00000
 BRILLOUIN|   750           0.00087       -0.17708        0.11458        0.00000
 BRILLOUIN|   751           0.00087       -0.17708        0.13542        0.00000
 BRILLOUIN|   752           0.00087       -0.17708        0.15625        0.00000
 BRILLOUIN|   753           0.00087       -0.17708        0.17708        0.00000
 BRILLOUIN|   754           0.00087       -0.17708        0.19792        0.00000
 BRILLOUIN|   755           0.00087       -0.17708        0.21875        0.00000
 BRILLOUIN|   756           0.00087       -0.17708        0.23958        0.00000
 BRILLOUIN|   757           0.00087       -0.17708        0.26042        0.00000
 BRILLOUIN|   758           0.00087       -0.17708        0.28125        0.00000
 BRILLOUIN|   759           0.00087       -0.17708        0.30208        0.00000
 BRILLOUIN|   760           0.00087       -0.17708        0.32292        0.00000
 BRILLOUIN|   761           0.00087       -0.17708        0.34375        0.00000
 BRILLOUIN|   762           0.00087       -0.17708        0.36458        0.00000
 BRILLOUIN|   763           0.00087       -0.17708        0.38542        0.00000
 BRILLOUIN|   764           0.00087       -0.17708        0.40625        0.00000
 BRILLOUIN|   765           0.00087       -0.17708        0.42708        0.00000
 BRILLOUIN|   766           0.00087       -0.17708        0.44792        0.00000
 BRILLOUIN|   767           0.00087       -0.17708        0.46875        0.00000
 BRILLOUIN|   768           0.00087       -0.17708        0.48958        0.00000
 BRILLOUIN|   769           0.00087       -0.15625       -0.48958        0.00000
 BRILLOUIN|   770           0.00087       -0.15625       -0.46875        0.00000
 BRILLOUIN|   771           0.00087       -0.15625       -0.44792        0.00000
 BRILLOUIN|   772           0.00087       -0.15625       -0.42708        0.00000
 BRILLOUIN|   773           0.00087       -0.15625       -0.40625        0.00000
 BRILLOUIN|   774           0.00087       -0.15625       -0.38542        0.00000
 BRILLOUIN|   775           0.00087       -0.15625       -0.36458        0.00000
 BRILLOUIN|   776           0.00087       -0.15625       -0.34375        0.00000
 BRILLOUIN|   777           0.00087       -0.15625       -0.32292        0.00000
 BRILLOUIN|   778           0.00087       -0.15625       -0.30208        0.00000
 BRILLOUIN|   779           0.00087       -0.15625       -0.28125        0.00000
 BRILLOUIN|   780           0.00087       -0.15625       -0.26042        0.00000
 BRILLOUIN|   781           0.00087       -0.15625       -0.23958        0.00000
 BRILLOUIN|   782           0.00087       -0.15625       -0.21875        0.00000
 BRILLOUIN|   783           0.00087       -0.15625       -0.19792        0.00000
 BRILLOUIN|   784           0.00087       -0.15625       -0.17708        0.00000
 BRILLOUIN|   785           0.00087       -0.15625       -0.15625        0.00000
 BRILLOUIN|   786           0.00087       -0.15625       -0.13542        0.00000
 BRILLOUIN|   787           0.00087       -0.15625       -0.11458        0.00000
 BRILLOUIN|   788           0.00087       -0.15625       -0.09375        0.00000
 BRILLOUIN|   789           0.00087       -0.15625       -0.07292        0.00000
 BRILLOUIN|   790           0.00087       -0.15625       -0.05208        0.00000
 BRILLOUIN|   791           0.00087       -0.15625       -0.03125        0.00000
 BRILLOUIN|   792           0.00087       -0.15625       -0.01042        0.00000
 BRILLOUIN|   793           0.00087       -0.15625        0.01042        0.00000
 BRILLOUIN|   794           0.00087       -0.15625        0.03125        0.00000
 BRILLOUIN|   795           0.00087       -0.15625        0.05208        0.00000
 BRILLOUIN|   796           0.00087       -0.15625        0.07292        0.00000
 BRILLOUIN|   797           0.00087       -0.15625        0.09375        0.00000
 BRILLOUIN|   798           0.00087       -0.15625        0.11458        0.00000
 BRILLOUIN|   799           0.00087       -0.15625        0.13542        0.00000
 BRILLOUIN|   800           0.00087       -0.15625        0.15625        0.00000
 BRILLOUIN|   801           0.00087       -0.15625        0.17708        0.00000
 BRILLOUIN|   802           0.00087       -0.15625        0.19792        0.00000
 BRILLOUIN|   803           0.00087       -0.15625        0.21875        0.00000
 BRILLOUIN|   804           0.00087       -0.15625        0.23958        0.00000
 BRILLOUIN|   805           0.00087       -0.15625        0.26042        0.00000
 BRILLOUIN|   806           0.00087       -0.15625        0.28125        0.00000
 BRILLOUIN|   807           0.00087       -0.15625        0.30208        0.00000
 BRILLOUIN|   808           0.00087       -0.15625        0.32292        0.00000
 BRILLOUIN|   809           0.00087       -0.15625        0.34375        0.00000
 BRILLOUIN|   810           0.00087       -0.15625        0.36458        0.00000
 BRILLOUIN|   811           0.00087       -0.15625        0.38542        0.00000
 BRILLOUIN|   812           0.00087       -0.15625        0.40625        0.00000
 BRILLOUIN|   813           0.00087       -0.15625        0.42708        0.00000
 BRILLOUIN|   814           0.00087       -0.15625        0.44792        0.00000
 BRILLOUIN|   815           0.00087       -0.15625        0.46875        0.00000
 BRILLOUIN|   816           0.00087       -0.15625        0.48958        0.00000
 BRILLOUIN|   817           0.00087       -0.13542       -0.48958        0.00000
 BRILLOUIN|   818           0.00087       -0.13542       -0.46875        0.00000
 BRILLOUIN|   819           0.00087       -0.13542       -0.44792        0.00000
 BRILLOUIN|   820           0.00087       -0.13542       -0.42708        0.00000
 BRILLOUIN|   821           0.00087       -0.13542       -0.40625        0.00000
 BRILLOUIN|   822           0.00087       -0.13542       -0.38542        0.00000
 BRILLOUIN|   823           0.00087       -0.13542       -0.36458        0.00000
 BRILLOUIN|   824           0.00087       -0.13542       -0.34375        0.00000
 BRILLOUIN|   825           0.00087       -0.13542       -0.32292        0.00000
 BRILLOUIN|   826           0.00087       -0.13542       -0.30208        0.00000
 BRILLOUIN|   827           0.00087       -0.13542       -0.28125        0.00000
 BRILLOUIN|   828           0.00087       -0.13542       -0.26042        0.00000
 BRILLOUIN|   829           0.00087       -0.13542       -0.23958        0.00000
 BRILLOUIN|   830           0.00087       -0.13542       -0.21875        0.00000
 BRILLOUIN|   831           0.00087       -0.13542       -0.19792        0.00000
 BRILLOUIN|   832           0.00087       -0.13542       -0.17708        0.00000
 BRILLOUIN|   833           0.00087       -0.13542       -0.15625        0.00000
 BRILLOUIN|   834           0.00087       -0.13542       -0.13542        0.00000
 BRILLOUIN|   835           0.00087       -0.13542       -0.11458        0.00000
 BRILLOUIN|   836           0.00087       -0.13542       -0.09375        0.00000
 BRILLOUIN|   837           0.00087       -0.13542       -0.07292        0.00000
 BRILLOUIN|   838           0.00087       -0.13542       -0.05208        0.00000
 BRILLOUIN|   839           0.00087       -0.13542       -0.03125        0.00000
 BRILLOUIN|   840           0.00087       -0.13542       -0.01042        0.00000
 BRILLOUIN|   841           0.00087       -0.13542        0.01042        0.00000
 BRILLOUIN|   842           0.00087       -0.13542        0.03125        0.00000
 BRILLOUIN|   843           0.00087       -0.13542        0.05208        0.00000
[...]
 -                                                                             -
 -                           R E F E R E N C E S                               -
 -                                                                             -
 -------------------------------------------------------------------------------
 
 CP2K version 2025.2 (Development Version), the CP2K developers group (2025).
 CP2K is freely available from https://www.cp2k.org/ .
 
 M. Graml, K. Zollner, D. Hernangmez-Prez, P. E. Faria Junior, J. Wilhelm.
 J. Chem. Theory Comput. 20, 2202-2208 (2024).
 Low-scaling GW algorithm applied to twisted transition-metal dichalcogenide 
 heterobilayers.
 https://doi.org/10.1021/acs.jctc.3c01230

 T. D. Kuehne, M. Iannuzzi, M. Del Ben, V. V. Rybkin, P. Seewald, F. Stein, T. 
 Laino, R. Z. Khaliullin, O. Schuett, F. Schiffmann, D. Golze, J. Wilhelm, S. 
 Chulkov, M. H. Bani-Hashemian, V. Weber, U. Borstnik, M. Taillefumier, A. S. 
 Jakobovits, A. Lazzaro, H. Pabst, T. Mueller, R. Schade, M. Guidon, S. 
 Andermatt, N. Holmberg, G. K. Schenter, A. Hehn, A. Bussy, F. Belleflamme, G. 
 Tabacchi, A. Gloess, M. Lass, I. Bethune, C. J. Mundy, C. Plessl, M. Watkins, 
 J. VandeVondele, M. Krack, J. Hutter.
 J. Chem. Phys. 152, 194103 (2020).
 CP2K: An electronic structure and molecular dynamics software package - 
 Quickstep: Efficient and accurate electronic structure calculations.
 https://doi.org/10.1063/5.0007045

 A. Togo, I. Tanaka.
 arXiv, 1808.01590 (2018).
 Spglib : a software library for crystal symmetry search.

 O. Schuett, P. Messmer, J. Hutter, J. VandeVondele.
 Electronic Structure Calculations on Graphics Processing Units, 173-190 (2016).
 GPU-Accelerated Sparse Matrix-Matrix Multiplication for Linear Scaling Density 
 Functional Theory.
 https://doi.org/10.1002/9781118670712.ch8

 A. Heinecke, G. Henry, M. Hutchinson, H. Pabst.
 Proceedings of Intl. Supercomputing Conference, 981-991 (2016).
 LIBXSMM: Accelerating Small Matrix Multiplications by Runtime Code Generation.
 https://doi.org/10.1109/SC.2016.83

 J. Hutter, M. Iannuzzi, F. Schiffmann, J. VandeVondele.
 WIREs Comput Mol Sci. 4, 15-25 (2014).
 CP2K: atomistic simulations of condensed matter systems.
 https://doi.org/10.1002/wcms.1159

 U. Borstnik, J. VandeVondele, V. Weber, J. Hutter.
 Parallel Comput. 40, 47-58 (2014).
 Sparse matrix multiplication: The distributed block-compressed sparse row 
 library.
 https://doi.org/10.1016/j.parco.2014.03.012

 A. Marek, V. Blum, R. Johanni, V. Havu, B. Lang, T. Auckenthaler, A. Heinecke, 
 H. Bungartz, H. Lederer.
 J. Phys. Condens. Matter 26, 213201 (2014).
 The ELPA library: scalable parallel eigenvalue solutions for electronic 
 structure theory and computational science.
 https://doi.org/10.1088/0953-8984/26/21/213201

 J. VandeVondele, J. Hutter.
 J. Chem. Phys. 127, 114105 (2007).
 Gaussian basis sets for accurate calculations on molecular systems in gas and 
 condensed phases.
 https://doi.org/10.1063/1.2770708

 M. Krack.
 Theor. Chem. Acc. 114, 145-152 (2005).
 Pseudopotentials for H to Kr optimized for gradient-corrected 
 exchange-correlation functionals.
 https://doi.org/10.1007/s00214-005-0655-y

 M. Frigo, S. G. Johnson.
 Proc. IEEE 93, 216-231 (2005).
 The design and implementation of FFTW3.
 https://doi.org/10.1109/JPROC.2004.840301

 M. Krack, M. Parrinello.
 Phys. Chem. Chem. Phys. 2, 2105-2112 (2000).
 All-electron ab-initio molecular dynamics.
 https://doi.org/10.1039/b001167n

 G. Lippert, J. Hutter, M. Parrinello.
 Theor. Chem. Acc. 103, 124-140 (1999).
 The Gaussian and augmented-plane-wave density functional method for ab initio 
 molecular dynamics simulations.
 https://doi.org/10.1007/s002140050523

 C. Hartwigsen, S. Goedecker, J. Hutter.
 Phys. Rev. B 58, 3641-3662 (1998).
 Relativistic separable dual-space Gaussian pseudopotentials from H to Rn.
 https://doi.org/10.1103/PhysRevB.58.3641

 S. Goedecker, M. Teter, J. Hutter.
 Phys. Rev. B 54, 1703-1710 (1996).
 Separable dual-space Gaussian pseudopotentials.
 https://doi.org/10.1103/PhysRevB.54.1703

 J. P. Perdew, K. Burke, M. Ernzerhof.
 Phys. Rev. Lett. 77, 3865-3868 (1996).
 Generalized gradient approximation made simple.
 https://doi.org/10.1103/PhysRevLett.77.3865


 -------------------------------------------------------------------------------
 -                                                                             -
 -                                T I M I N G                                  -
 -                                                                             -
 -------------------------------------------------------------------------------
 SUBROUTINE                       CALLS  ASD         SELF TIME        TOTAL TIME
                                MAXIMUM       AVERAGE  MAXIMUM  AVERAGE  MAXIMUM
 CP2K                                 1  1.0     0.03     0.05 61422.00 61422.76
 qs_energies                          1  2.0     0.00     0.00 61352.46 61353.21
 qs_energies_properties               1  3.0     0.00     0.00 61065.35 61066.10
 post_scf_bandstructure               1  4.0     0.00     0.00 61065.35 61066.10
 gw                                   1  5.0     0.00     0.00 60928.20 60928.95
 gw_calc_small_cell_full_kp           1  6.0     0.00     0.01 60701.12 60701.87
 compute_W_real_space                 1  7.0    12.39    12.69 48375.52 48376.13
 mp_sum_dm3                        1044  9.0 28186.98 28189.75 28186.98 28189.75
 fm_to_local_array                  934  8.1    73.79    74.76 28134.57 28135.31
 compute_Minv_and_Vsqrt               1  8.0     0.15     0.16 18848.05 18848.42
 build_2c_coulomb_matrix_kp_sma       2  9.0    37.55    75.89 18791.39 18791.65
 build_2c_coulomb_matrix_kp_sma 1474560 10.0 17342.22 17555.78 17342.22 17555.78
 dbt_total                      9480981  9.6    17.43    18.59  8089.16  8892.24
 dbt_contract                   3859476 10.4    33.44    35.50  7171.45  7772.74
 dbt_tas_multiply               4762998 12.9     4.69     5.08  6810.59  7448.06
 dbt_tas_total                  4762998 13.9   173.44   181.00  6807.55  7445.00
 compute_chi                          1  7.0     0.06     0.16  6936.54  6936.65
 compute_Sigma_c                      1  7.0     0.00     0.00  4338.42  4338.92
 dbt_tas_estimate_result_nze    2381499 13.4   366.26   491.32  2750.98  3347.14
 G_times_3c                       22322  8.0    15.03    16.16  2834.13  3212.73
 mp_sync                        ******* 12.4  2069.41  3019.12  2069.41  3019.12
 dbt_tas_dbm                    4762998 14.9     4.16     4.52  2588.12  2728.65
 dbm_multiply                   4762998 16.9  2579.10  2719.86  2579.10  2719.86
 contract_to_Sigma                  200  8.0    32.12    34.74  2043.63  2198.97
 contract_M_occ_vir_to_chi          110  8.0    44.64    49.89  1625.20  2136.32
 contract_W                         104  8.0    10.14    10.70  1751.80  1980.92
 G_occ_vir                          121  8.0     0.68     0.76  1570.87  1611.47
 fm_to_local_tensor              335768  9.0     2.94     3.13  1376.27  1519.41
 dbcsr_complete_redistribute     981273  9.8    15.73    24.29  1156.42  1398.58
 dbm_reserve_blocks             ******* 16.6  1014.77  1373.17  1014.77  1373.17
 mp_alltoall_i22                1768887 10.3  1091.66  1358.18  1091.66  1358.18
 contract_to_Sigma_3c_x_G        941907  9.0     1.28     1.44  1238.63  1342.74
 dbt_copy                       6076053 10.9    25.07    27.40  1067.01  1290.90
 convert_to_new_pgrid           ******* 14.9    26.98    29.20  1049.24  1213.08
 dbm_copy                       9525996 15.9  1022.26  1186.61  1022.26  1186.61
 copy_fm_to_dbcsr                448875  9.5     0.92     0.98   896.45  1148.65
 dbt_tas_mm_2                   1461142 16.0     1.41     1.72   891.04  1119.19
 get_V_tr_R                          34  9.0     0.19     0.22  1088.51  1088.55
 global_matrix_to_local_matrix   335768 10.0     3.41     5.58   389.71  1073.78
 dbt_tas_reserve_blocks_index   ******* 15.8    12.26    12.94   711.80  1062.64
 mult_W_with_Minv                    30  8.0     1.01     1.04  1055.97  1055.99
 dbt_tas_mm_3T                  2257358 16.1     1.45     1.67   916.82   997.82
 dbt_reshape                    4417714 11.8   604.04   701.11   757.99   933.66
 send_data                       335768 11.0     0.21     0.25   273.36   901.05
 communicate_buffer              335768 12.0     2.93    26.63   273.15   900.79
 contract_to_Sigma_contract       20134  9.0    13.34    14.92   754.07   873.66
 dbt_tas_mm_1N                  1262506 15.5     0.72     0.78   775.17   838.19
 mp_waitall_1                   2734229 11.4   273.26   832.45   273.26   832.45
 add_rs_to_ikp                  ******* -1.3   767.23   798.34   767.23   798.34
 reshape_mm_small               4762998 14.9   279.00   292.14   692.65   782.11
 mp_sum_dm                      1474608 10.0   662.74   736.95   662.74   736.95
 trafo_rs_to_ikp                  24156  8.1    20.43    23.26   707.07   728.59
 dbt_tas_reserve_blocks_templat 7040642 14.1    11.73    12.80   427.83   703.74
 compute_Sigma_x                      1  7.0     0.00     0.00   701.49   702.40
 add_ikp_to_rs                  ******* -3.0   612.95   663.63   612.95   663.63
 dbt_tas_reshape                5672094 15.5    26.79    28.40   537.25   639.12
 get_t_3c_int                   3087145  9.3     8.49     9.16   503.24   581.90
 add_ikp_to_all_rs                22158  8.0    17.95    19.94   523.90   573.99
 dbm_add                        4762998 14.9   397.56   489.08   397.56   489.08
 dbt_tas_replicate              4762998 14.9    78.59    83.26   429.18   484.47
 add_V_L                         737280 10.0    14.74   475.50    14.74   475.50
 copy_dbcsr_to_fm                532398  8.2     2.68     2.85   438.71   463.58
 parallel_gemm_cfm               607352  8.9     0.41     0.54   276.79   385.51
 parallel_gemm_cfm_cosma         607352  9.9   276.38   385.14   276.38   385.14
 dbt_tas_reshape_buffer_obtain  5672094 16.5    82.15    95.52   294.14   384.65
 compute_QP_energies                  1  7.0     0.17     0.19   349.15   353.72
 trafo_to_k_and_nn               149572  8.0     0.56     0.66   348.70   353.27
 dbt_destroy                    ******* 10.7   324.01   339.07   327.67   342.85
 local_dbt_to_global_fm              91  8.0     0.33     0.35   307.44   307.45
 fm_add_ikp_to_rs                278784  9.0   184.00   198.41   291.03   306.46
 dbt_tas_create_split           ******* 15.9     8.18     8.97   285.77   299.23
 dbt_remap                       467635 11.0    43.17    46.51   254.13   295.71
 dbt_tas_create_split_rows_or_c ******* 16.9    29.95    31.41   277.60   290.79
 scf_env_do_scf                       1  3.0     0.00     0.00   286.87   286.88
 scf_env_do_scf_inner_loop           49  4.0     0.01     0.01   286.87   286.88
 reshape_mm_compatible          4762998 14.9    39.41    41.44   265.21   277.61
 qs_scf_new_mos_kp                   49  5.0     0.00     0.00   275.51   275.53
 do_general_diag_kp                  49  6.0     0.51     0.55   275.51   275.53
 dbcsr_desymmetrize_deep         787614  8.6     6.16     7.08   229.48   257.40
 destroy_t_1d                        98  8.0     0.41     0.46   239.44   249.76
 fm_trafo_rs_to_ikp              149572  9.0   100.49   131.29   181.07   236.89
 create_and_init_bs_env_for_gw        1  6.0     0.00     0.00   227.08   227.15
 dbt_tas_distribution_new       ******* 15.6   108.74   112.95   210.43   218.93
 dbt_tas_copy                   2424838 12.3    93.74   118.60   183.90   218.43
 dbt_tas_reshape_buffer_fill    5672094 16.5   174.31   192.33   174.31   192.33
 mp_cart_create                 ******* 16.4   161.15   168.94   175.72   184.22
 change_split                   6235401 15.4    13.06    13.78   174.18   182.91
 mp_sum_dv                       164436  8.9    40.26   182.37    40.26   182.37
 fm_MWM_R_t_to_local_tensor_W_R      30  8.0     0.05     0.06   181.10   181.14
 mp_cart_sub                    1064875 10.2   174.33   174.50   174.33   174.50
 local_dbt_to_global_mat         201019  9.0     0.69     0.73    79.24   160.62
 compute_3c_integrals                 1  7.0     0.05     0.05   154.70   154.70
 dbt_reserve_blocks_index       5084765 13.6     5.00     5.68    89.93   154.56
 build_3c_integrals                   1  8.0   140.69   149.38   145.75   154.39
 dbt_reserve_blocks_index_array 4719351 12.8     4.18     4.91    85.56   150.48
 local_matrix_to_global_matrix   201019 10.0     0.37     0.39    56.77   138.52
 get_Minv_Vtr_Minv_R                  1  8.0     0.04     0.04   135.60   135.62
 power                            45918  8.0     7.86     8.74   127.99   130.06
 dbt_copy_nocomm                 426045 11.0    66.48    93.98    80.65   127.15
 diag_complex                     45918  9.0   120.13   122.23   120.13   122.23
 dbt_communicate_buffer         4417714 12.8    78.35   113.25    78.35   113.25
 comm_data                       201019 11.0     0.33     1.40    36.95   107.25
 mp_waitall_2                    402038 12.0    33.80   105.00    33.80   105.00
 mp_comm_dup                    ******* 18.4    89.00    93.86    96.61   101.76
 dbt_tas_merge                  1461142 15.0    22.91    28.32    59.05    90.65
 dos_pdos_ldos                        1  5.0     0.01     0.01    87.59    87.61
 mp_sum_i                       4189676 15.7    84.82    87.22    84.82    87.22
 add_R                          *******  9.3    57.14    61.81    80.97    86.97
 send_sizes_1                    335768 11.0     0.19     0.21    83.89    86.21
 cp_cfm_heevd                     10249  7.5     0.01     0.01    82.66    82.88
 cp_cfm_heevd_base                10249  8.5    82.66    82.87    82.66    82.87
 SOC_ev                            4904  6.0     0.05     0.06    79.82    79.90
 get_data                        335768 11.0     7.07    79.30     7.57    79.88
 bs_env_release                       1  2.0     0.09     0.19    63.79    69.08
 mp_comm_split_direct           ******* 17.9    59.73    62.64    63.44    66.52
 mp_comm_free                   ******* 15.4    61.52    65.53    61.52    65.53
 dbt_permute_index              ******* 12.1    48.55    52.91    54.78    59.31
 heuristic_RI_regularization          1  7.0     0.00     0.00    54.42    54.42
 dbt_tas_create_new             ******* 15.2    48.84    53.09    48.84    53.09
 kpoint_density_transform            49  7.0     0.16     0.17    51.52    51.53
 dbt_distribution_new_expert    1606816 12.1     8.49     9.01    48.81    51.11
 reshape_mm_template             935270 15.5    30.11    34.96    45.20    50.78
 dbt_align_index                7144497 11.4     7.55     8.05    45.17    47.91
 is_cell_in_index_to_cell       ******* -6.2    44.19    47.19    44.19    47.19
 dbcsr_finalize                 4006733 11.2     8.33     9.88    37.90    44.08
 cp_fm_start_copy_general        338688  7.3     1.39     2.60    41.55    43.15
 rskp_transform                  127608  7.1     0.82    41.95     0.82    41.95
 mp_isend_dv                    ******* 12.4     4.32    39.62     4.32    39.62
 dbt_tas_mp_comm                2836047 13.0     4.54     5.06    35.13    38.07
 dbt_tas_communicate_buffer     ******* 17.2    26.95    36.76    26.95    36.76
 create_and_init_bs_env               1  5.0     0.00     0.00    35.77    35.77
 compute_cfm_mo_coeff_kp_and_ei       1  6.0     0.01     0.01    35.77    35.77
 dbt_reserve_blocks_template     426045 12.0     0.90     1.16    14.17    35.57
 mp_max_i                       7719417 11.4     7.40    35.28     7.40    35.28
 dbt_create_matrix               335768 10.0     1.88     1.97    33.51    34.87
 mp_allgather_i                  677376  8.3    31.27    34.47    31.27    34.47
 dbt_tas_reshape_communicate_bu 5672094 16.5     3.42     3.73    25.33    34.32
 rsmat_to_kp                      14712  7.2     0.10     0.11    27.79    27.99
 mp_alltoall_d11v               5306661 10.7     7.63    27.98     7.63    27.98
 dbt_create_new                  803408 11.6     5.56     5.95    25.83    27.20
 dbcsr_filter_anytype           1495842 11.0     3.50     3.92    19.84    27.17
 mp_alltoall_i                  ******* 15.2    25.32    26.58    25.32    26.58
 cp_cfm_geeig_canon                2452  7.0     0.01     0.01    25.58    25.65
 mp_comm_size                   ******* 16.2    23.78    25.34    23.78    25.34
 mp_cart_get                    ******* 15.9    22.87    24.78    22.87    24.78
 dbm_filter                     7021925 14.8    22.00    23.44    22.00    23.44
 dbcsr_merge_all                1514838 11.9    14.26    15.76    18.34    21.03
 transform_dmat                   56448  8.0     0.37    19.29     0.37    19.29
 mp_alltoall_i11v               3731433 10.5     8.14    17.47     8.14    17.47
 set_blocks                      201019 11.0     2.09     6.79     6.79    16.74
 dbt_pgrid_create_expert        1606819 13.1     2.00     2.21    15.34    16.12
 mp_comm_rank                   ******* 16.2    14.52    15.86    14.52    15.86
 dbt_create_3c_R1_R2                 62  8.0     2.86     3.05    14.05    14.67
 soc                                  1  5.0     0.00     0.00    13.78    13.78
 H_KS_spinor_kp                       1  6.0     0.01     0.02    13.76    13.77
 dbt_create_template            3959888  9.0    12.29    12.88    12.29    12.88
 dbt_nd_mp_comm                  803403 11.6     1.32     1.51    12.07    12.82
 destroy_t_2d                        62  8.0     3.41     5.56    10.19    12.61
 send_sizes_2                    335768 11.0     0.19     0.21    12.04    12.34
 dbt_copy_matrix_to_tensor       335768 10.0     2.28     2.83     9.42    11.76
 dbcsr_work_create              2302452 10.5     6.54     7.70     9.16    10.81
 dbt_tas_reshape_get_coord      5672094 16.5     9.41    10.23     9.41    10.23
 mp_isend_im2                   ******* 12.9     0.46     9.66     0.46     9.66
 dbcsr_iterator_start           8474615 11.1     7.75     8.01     9.17     9.46
 dbm_scale                      5604806 14.5     8.63     9.28     8.63     9.28
 dbcsr_create_new               3162389 10.1     6.43     6.71     8.07     8.44
 dbt_reserve_blocks_matrix_to_t  335768 11.0     0.96     1.00     6.41     8.27
 dbt_tas_replicate_communicate_ 3515672 15.9     2.10     2.41     5.68     8.18
 comm_size                       201019 11.0     0.15     0.17     7.36     8.04
 mp_bcast_iv                    1354819  8.3     6.57     7.75     6.57     7.75
 trafo_V_xc_R_to_kp                   1  7.0     0.01     0.01     7.71     7.72
 copy_fm_to_dbcsr_bc             448875 10.5     2.06     2.17     7.13     7.59
 mp_sum_l                       ******* 15.0     6.82     7.54     6.82     7.54
 dbcsr_work_destroy_all         2302452 11.4     4.52     5.35     6.32     7.45
 reserve_blocks                  335768 11.0     0.77     0.84     6.05     6.99
 dbt_create_2c_R                     98  8.0     5.51     6.27     6.20     6.97
 compute_proj_mo_on_kind           2452  6.0     0.04     0.04     6.33     6.44
 dbt_tas_reshape_alltoall       5672094 16.5     3.23     3.63     5.73     6.30
 -------------------------------------------------------------------------------

 The number of warnings for this run is : 1
 
 -------------------------------------------------------------------------------
  **** **** ******  **  PROGRAM ENDED AT                 2025-09-19 12:38:20.845
 ***** ** ***  *** **   PROGRAM RAN ON                                 n2lcn0135
 **    ****   ******    PROGRAM RAN BY                                  metdyn02
 ***** **    ** ** **   PROGRAM PROCESS ID                                889204
  **** **  *******  **  PROGRAM STOPPED IN /scratch/hpc-prf-metdyn/metdyn02_Remi
                                           /05_TMD_new/paperbenchmarksMoS2/kpoin
                                           ts/48
