 DBCSR| CPU Multiplication driver                                           XSMM (U)
 DBCSR| Multrec recursion limit                                              512 (U)
 DBCSR| Multiplication stack size                                           1000 (D)
 DBCSR| Maximum elements for images                                    UNLIMITED (U)
 DBCSR| Multiplicative factor virtual images                                   1 (U)
 DBCSR| Use multiplication densification                                       T (D)
 DBCSR| Multiplication size stacks                                             3 (U)
 DBCSR| Use memory pool for CPU allocation                                     F (U)
 DBCSR| Number of 3D layers                                               SINGLE (U)
 DBCSR| Use MPI memory allocation                                              F (U)
 DBCSR| Use RMA algorithm                                                      F (U)
 DBCSR| Use Communication thread                                               T (U)
 DBCSR| Communication thread load                                             60 (D)
 DBCSR| MPI: My process id                                                     0
 DBCSR| MPI: Number of processes                                             128
 DBCSR| OMP: Current number of threads                                         8
 DBCSR| OMP: Max number of threads                                             8
 DBCSR| Split modifier for TAS multiplication algorithm                  1.0E+00 (U)


  **** **** ******  **  PROGRAM STARTED AT               2025-09-22 16:47:11.018
 ***** ** ***  *** **   PROGRAM STARTED ON                             n2lcn0103
 **    ****   ******    PROGRAM STARTED BY                              metdyn02
 ***** **    ** ** **   PROGRAM PROCESS ID                               2695405
  **** **  *******  **  PROGRAM STARTED IN /scratch/hpc-prf-metdyn/metdyn02_Remi
                                           /05_TMD_new/paperbenchmarksMoS2/kpoin
                                           ts/80

 CP2K| version string:                 CP2K version 2025.2 (Development Version)
 CP2K| source code revision number:                                  git:8d80afc
 CP2K| cp2kflags: omp libint fftw3 libxc libgrpp elpa parallel scalapack mpi_f08
 CP2K|             cosma xsmm plumed2 spglib libvori libbqb libvdwxc hdf5
 CP2K| is freely available from                            https://www.cp2k.org/
 CP2K| Program compiled at                         Mon Sep  8 11:02:08 CEST 2025
 CP2K| Program compiled on                                              n2login1
 CP2K| Program compiled for                                                local
 CP2K| Data directory path    /opt/software/pc2/EB-SW/software/CP2K/2025.2-foss-
 CP2K| Input file name                                                    GW.inp

 GLOBAL| Force Environment number                                              1
 GLOBAL| Basis set file name            /scratch/hpc-prf-metdyn/metdyn02_Remi/05
 GLOBAL| Potential file name                                  GTH_SOC_POTENTIALS
 GLOBAL| MM Potential file name                                     MM_POTENTIAL
 GLOBAL| Coordinate file name                                      __STD_INPUT__
 GLOBAL| Method name                                                        CP2K
 GLOBAL| Project name                                                       WSe2
 GLOBAL| Run type                                                         ENERGY
 GLOBAL| FFT library                                                       FFTW3
 GLOBAL| Diagonalization library                                            ELPA
 GLOBAL| Cholesky decomposition library                                ScaLAPACK
 GLOBAL| DGEMM library                                                      BLAS
 GLOBAL| Minimum number of eigenvectors for ELPA usage                        16
 GLOBAL| Orthonormality check for eigenvectors                          DISABLED
 GLOBAL| Matrix multiplication library                                     COSMA
 GLOBAL| All-to-all communication in single precision                          F
 GLOBAL| FFTs using library dependent lengths                                  F
 GLOBAL| Grid backend                                                       AUTO
 GLOBAL| Global print level                                               MEDIUM
 GLOBAL| MPI I/O enabled                                                       T
 GLOBAL| Total number of message passing processes                           128
 GLOBAL| Number of threads for this process                                    8
 GLOBAL| This output is from process                                           0
 GLOBAL| OpenMP stack size per thread (OMP_STACKSIZE)                    default
 GLOBAL| CPU model name                          AMD EPYC 7763 64-Core Processor
 GLOBAL| CPUID                                                              1002

 MEMORY| system memory details [Kb]
 MEMORY|                        rank 0           min           max       average
 MEMORY| MemTotal           1056620448    1056620432    1056620508    1056620476
 MEMORY| MemFree            1024914888    1023253208    1037151396    1029413921
 MEMORY| Buffers                 47100         46024        237052        108095
 MEMORY| Cached               21040440      10479296      21040440      16519290
 MEMORY| Slab                  3236860       2219188       4910764       3591141
 MEMORY| SReclaimable           936456        674880       2020264       1309188
 MEMORY| MemLikelyFree      1046938884    1045954560    1048860224    1047350494


 *** Fundamental physical constants (SI units) ***

 *** Literature: B. J. Mohr and B. N. Taylor,
 ***             CODATA recommended values of the fundamental physical
 ***             constants: 2006, Web Version 5.1
 ***             http://physics.nist.gov/constants

 Speed of light in vacuum [m/s]                             2.99792458000000E+08
 Magnetic constant or permeability of vacuum [N/A**2]       1.25663706143592E-06
 Electric constant or permittivity of vacuum [F/m]          8.85418781762039E-12
 Planck constant (h) [J*s]                                  6.62606896000000E-34
 Planck constant (h-bar) [J*s]                              1.05457162825177E-34
 Elementary charge [C]                                      1.60217648700000E-19
 Electron mass [kg]                                         9.10938215000000E-31
 Electron g factor [ ]                                     -2.00231930436220E+00
 Proton mass [kg]                                           1.67262163700000E-27
 Fine-structure constant                                    7.29735253760000E-03
 Rydberg constant [1/m]                                     1.09737315685270E+07
 Avogadro constant [1/mol]                                  6.02214179000000E+23
 Boltzmann constant [J/K]                                   1.38065040000000E-23
 Atomic mass unit [kg]                                      1.66053878200000E-27
 Bohr radius [m]                                            5.29177208590000E-11

 *** Conversion factors ***

 [u] -> [a.u.]                                              1.82288848426455E+03
 [Angstrom] -> [Bohr] = [a.u.]                              1.88972613288564E+00
 [a.u.] = [Bohr] -> [Angstrom]                              5.29177208590000E-01
 [a.u.] -> [s]                                              2.41888432650478E-17
 [a.u.] -> [fs]                                             2.41888432650478E-02
 [a.u.] -> [J]                                              4.35974393937059E-18
 [a.u.] -> [N]                                              8.23872205491840E-08
 [a.u.] -> [K]                                              3.15774647902944E+05
 [a.u.] -> [kJ/mol]                                         2.62549961709828E+03
 [a.u.] -> [kcal/mol]                                       6.27509468713739E+02
 [a.u.] -> [Pa]                                             2.94210107994716E+13
 [a.u.] -> [bar]                                            2.94210107994716E+08
 [a.u.] -> [atm]                                            2.90362800883016E+08
 [a.u.] -> [eV]                                             2.72113838565563E+01
 [a.u.] -> [Hz]                                             6.57968392072181E+15
 [a.u.] -> [1/cm] (wave numbers)                            2.19474631370540E+05
 [a.u./Bohr**2] -> [1/cm]                                   5.14048714338585E+03
 

 CELL_TOP| Volume [angstrom^3]:                                       131.694613
 CELL_TOP| Vector a [angstrom     3.184     0.000     0.000   |a| =     3.184000
 CELL_TOP| Vector b [angstrom    -1.592     2.757     0.000   |b| =     3.184000
 CELL_TOP| Vector c [angstrom     0.000     0.000    15.000   |c| =    15.000000
 CELL_TOP| Angle (b,c), alpha [degree]:                                90.000000
 CELL_TOP| Angle (a,c), beta  [degree]:                                90.000000
 CELL_TOP| Angle (a,b), gamma [degree]:                               120.000000
 CELL_TOP| Numerically orthorhombic:                                          NO
 CELL_TOP| Periodicity                                                        XY

 GENERATE|  Preliminary Number of Bonds generated:                             0
 GENERATE|  Achieved consistency in connectivity generation.

 CELL| Volume [angstrom^3]:                                           131.694613
 CELL| Vector a [angstrom]:       3.184     0.000     0.000   |a| =     3.184000
 CELL| Vector b [angstrom]:      -1.592     2.757     0.000   |b| =     3.184000
 CELL| Vector c [angstrom]:       0.000     0.000    15.000   |c| =    15.000000
 CELL| Angle (b,c), alpha [degree]:                                    90.000000
 CELL| Angle (a,c), beta  [degree]:                                    90.000000
 CELL| Angle (a,b), gamma [degree]:                                   120.000000
 CELL| Numerically orthorhombic:                                              NO
 CELL| Periodicity                                                            XY

 CELL_REF| Volume [angstrom^3]:                                       131.694613
 CELL_REF| Vector a [angstrom     3.184     0.000     0.000   |a| =     3.184000
 CELL_REF| Vector b [angstrom    -1.592     2.757     0.000   |b| =     3.184000
 CELL_REF| Vector c [angstrom     0.000     0.000    15.000   |c| =    15.000000
 CELL_REF| Angle (b,c), alpha [degree]:                                90.000000
 CELL_REF| Angle (a,c), beta  [degree]:                                90.000000
 CELL_REF| Angle (a,b), gamma [degree]:                               120.000000
 CELL_REF| Numerically orthorhombic:                                          NO
 CELL_REF| Periodicity                                                        XY

 *******************************************************************************
                                    Kpoints
 *******************************************************************************
 BRILLOUIN| K-point scheme                                        Monkhorst-Pack
 BRILLOUIN| K-Point grid                                            80   80    1
 BRILLOUIN| Accuracy in Symmetry determination                      0.100000E-05
 BRILLOUIN| K-Point point group symmetrization                               OFF
 BRILLOUIN| Wavefunction type                                            COMPLEX
 BRILLOUIN| List of Kpoints [2 Pi/Bohr]                                     3200
 BRILLOUIN| Number           Weight            X              Y              Z
 BRILLOUIN|     1           0.00031       -0.49375       -0.49375        0.00000
 BRILLOUIN|     2           0.00031       -0.49375       -0.48125        0.00000
 BRILLOUIN|     3           0.00031       -0.49375       -0.46875        0.00000
 BRILLOUIN|     4           0.00031       -0.49375       -0.45625        0.00000
 BRILLOUIN|     5           0.00031       -0.49375       -0.44375        0.00000
 BRILLOUIN|     6           0.00031       -0.49375       -0.43125        0.00000
 BRILLOUIN|     7           0.00031       -0.49375       -0.41875        0.00000
 BRILLOUIN|     8           0.00031       -0.49375       -0.40625        0.00000
 BRILLOUIN|     9           0.00031       -0.49375       -0.39375        0.00000
 BRILLOUIN|    10           0.00031       -0.49375       -0.38125        0.00000
 BRILLOUIN|    11           0.00031       -0.49375       -0.36875        0.00000
 BRILLOUIN|    12           0.00031       -0.49375       -0.35625        0.00000
 BRILLOUIN|    13           0.00031       -0.49375       -0.34375        0.00000
 BRILLOUIN|    14           0.00031       -0.49375       -0.33125        0.00000
 BRILLOUIN|    15           0.00031       -0.49375       -0.31875        0.00000
 BRILLOUIN|    16           0.00031       -0.49375       -0.30625        0.00000
 BRILLOUIN|    17           0.00031       -0.49375       -0.29375        0.00000
 BRILLOUIN|    18           0.00031       -0.49375       -0.28125        0.00000
 BRILLOUIN|    19           0.00031       -0.49375       -0.26875        0.00000
 BRILLOUIN|    20           0.00031       -0.49375       -0.25625        0.00000
 BRILLOUIN|    21           0.00031       -0.49375       -0.24375        0.00000
 BRILLOUIN|    22           0.00031       -0.49375       -0.23125        0.00000
 BRILLOUIN|    23           0.00031       -0.49375       -0.21875        0.00000
 BRILLOUIN|    24           0.00031       -0.49375       -0.20625        0.00000
 BRILLOUIN|    25           0.00031       -0.49375       -0.19375        0.00000
 BRILLOUIN|    26           0.00031       -0.49375       -0.18125        0.00000
 BRILLOUIN|    27           0.00031       -0.49375       -0.16875        0.00000
 BRILLOUIN|    28           0.00031       -0.49375       -0.15625        0.00000
 BRILLOUIN|    29           0.00031       -0.49375       -0.14375        0.00000
 BRILLOUIN|    30           0.00031       -0.49375       -0.13125        0.00000
 BRILLOUIN|    31           0.00031       -0.49375       -0.11875        0.00000
 BRILLOUIN|    32           0.00031       -0.49375       -0.10625        0.00000
 BRILLOUIN|    33           0.00031       -0.49375       -0.09375        0.00000
 BRILLOUIN|    34           0.00031       -0.49375       -0.08125        0.00000
 BRILLOUIN|    35           0.00031       -0.49375       -0.06875        0.00000
 BRILLOUIN|    36           0.00031       -0.49375       -0.05625        0.00000
 BRILLOUIN|    37           0.00031       -0.49375       -0.04375        0.00000
 BRILLOUIN|    38           0.00031       -0.49375       -0.03125        0.00000
 BRILLOUIN|    39           0.00031       -0.49375       -0.01875        0.00000
 BRILLOUIN|    40           0.00031       -0.49375       -0.00625        0.00000
 BRILLOUIN|    41           0.00031       -0.49375        0.00625        0.00000
 BRILLOUIN|    42           0.00031       -0.49375        0.01875        0.00000
 BRILLOUIN|    43           0.00031       -0.49375        0.03125        0.00000
 BRILLOUIN|    44           0.00031       -0.49375        0.04375        0.00000
 BRILLOUIN|    45           0.00031       -0.49375        0.05625        0.00000
 BRILLOUIN|    46           0.00031       -0.49375        0.06875        0.00000
 BRILLOUIN|    47           0.00031       -0.49375        0.08125        0.00000
 BRILLOUIN|    48           0.00031       -0.49375        0.09375        0.00000
 BRILLOUIN|    49           0.00031       -0.49375        0.10625        0.00000
 BRILLOUIN|    50           0.00031       -0.49375        0.11875        0.00000
 BRILLOUIN|    51           0.00031       -0.49375        0.13125        0.00000
 BRILLOUIN|    52           0.00031       -0.49375        0.14375        0.00000
 BRILLOUIN|    53           0.00031       -0.49375        0.15625        0.00000
 BRILLOUIN|    54           0.00031       -0.49375        0.16875        0.00000
 BRILLOUIN|    55           0.00031       -0.49375        0.18125        0.00000
 BRILLOUIN|    56           0.00031       -0.49375        0.19375        0.00000
 BRILLOUIN|    57           0.00031       -0.49375        0.20625        0.00000
 BRILLOUIN|    58           0.00031       -0.49375        0.21875        0.00000
 BRILLOUIN|    59           0.00031       -0.49375        0.23125        0.00000
 BRILLOUIN|    60           0.00031       -0.49375        0.24375        0.00000
 BRILLOUIN|    61           0.00031       -0.49375        0.25625        0.00000
 BRILLOUIN|    62           0.00031       -0.49375        0.26875        0.00000
 BRILLOUIN|    63           0.00031       -0.49375        0.28125        0.00000
 BRILLOUIN|    64           0.00031       -0.49375        0.29375        0.00000
 BRILLOUIN|    65           0.00031       -0.49375        0.30625        0.00000
 BRILLOUIN|    66           0.00031       -0.49375        0.31875        0.00000
 BRILLOUIN|    67           0.00031       -0.49375        0.33125        0.00000
 BRILLOUIN|    68           0.00031       -0.49375        0.34375        0.00000
 BRILLOUIN|    69           0.00031       -0.49375        0.35625        0.00000
 BRILLOUIN|    70           0.00031       -0.49375        0.36875        0.00000
 BRILLOUIN|    71           0.00031       -0.49375        0.38125        0.00000
 BRILLOUIN|    72           0.00031       -0.49375        0.39375        0.00000
 BRILLOUIN|    73           0.00031       -0.49375        0.40625        0.00000
 BRILLOUIN|    74           0.00031       -0.49375        0.41875        0.00000
 BRILLOUIN|    75           0.00031       -0.49375        0.43125        0.00000
 BRILLOUIN|    76           0.00031       -0.49375        0.44375        0.00000
 BRILLOUIN|    77           0.00031       -0.49375        0.45625        0.00000
 BRILLOUIN|    78           0.00031       -0.49375        0.46875        0.00000
 BRILLOUIN|    79           0.00031       -0.49375        0.48125        0.00000
 BRILLOUIN|    80           0.00031       -0.49375        0.49375        0.00000
 BRILLOUIN|    81           0.00031       -0.48125       -0.49375        0.00000
 BRILLOUIN|    82           0.00031       -0.48125       -0.48125        0.00000
 BRILLOUIN|    83           0.00031       -0.48125       -0.46875        0.00000
 BRILLOUIN|    84           0.00031       -0.48125       -0.45625        0.00000
 BRILLOUIN|    85           0.00031       -0.48125       -0.44375        0.00000
 BRILLOUIN|    86           0.00031       -0.48125       -0.43125        0.00000
 BRILLOUIN|    87           0.00031       -0.48125       -0.41875        0.00000
 BRILLOUIN|    88           0.00031       -0.48125       -0.40625        0.00000
 BRILLOUIN|    89           0.00031       -0.48125       -0.39375        0.00000
 BRILLOUIN|    90           0.00031       -0.48125       -0.38125        0.00000
 BRILLOUIN|    91           0.00031       -0.48125       -0.36875        0.00000
 BRILLOUIN|    92           0.00031       -0.48125       -0.35625        0.00000
 BRILLOUIN|    93           0.00031       -0.48125       -0.34375        0.00000
 BRILLOUIN|    94           0.00031       -0.48125       -0.33125        0.00000
 BRILLOUIN|    95           0.00031       -0.48125       -0.31875        0.00000
 BRILLOUIN|    96           0.00031       -0.48125       -0.30625        0.00000
 BRILLOUIN|    97           0.00031       -0.48125       -0.29375        0.00000
 BRILLOUIN|    98           0.00031       -0.48125       -0.28125        0.00000
 BRILLOUIN|    99           0.00031       -0.48125       -0.26875        0.00000
 BRILLOUIN|   100           0.00031       -0.48125       -0.25625        0.00000
 BRILLOUIN|   101           0.00031       -0.48125       -0.24375        0.00000
 BRILLOUIN|   102           0.00031       -0.48125       -0.23125        0.00000
 BRILLOUIN|   103           0.00031       -0.48125       -0.21875        0.00000
 BRILLOUIN|   104           0.00031       -0.48125       -0.20625        0.00000
 BRILLOUIN|   105           0.00031       -0.48125       -0.19375        0.00000
 BRILLOUIN|   106           0.00031       -0.48125       -0.18125        0.00000
 BRILLOUIN|   107           0.00031       -0.48125       -0.16875        0.00000
 BRILLOUIN|   108           0.00031       -0.48125       -0.15625        0.00000
 BRILLOUIN|   109           0.00031       -0.48125       -0.14375        0.00000
 BRILLOUIN|   110           0.00031       -0.48125       -0.13125        0.00000
 BRILLOUIN|   111           0.00031       -0.48125       -0.11875        0.00000
 BRILLOUIN|   112           0.00031       -0.48125       -0.10625        0.00000
 BRILLOUIN|   113           0.00031       -0.48125       -0.09375        0.00000
 BRILLOUIN|   114           0.00031       -0.48125       -0.08125        0.00000
 BRILLOUIN|   115           0.00031       -0.48125       -0.06875        0.00000
 BRILLOUIN|   116           0.00031       -0.48125       -0.05625        0.00000
 BRILLOUIN|   117           0.00031       -0.48125       -0.04375        0.00000
 BRILLOUIN|   118           0.00031       -0.48125       -0.03125        0.00000
 BRILLOUIN|   119           0.00031       -0.48125       -0.01875        0.00000
 BRILLOUIN|   120           0.00031       -0.48125       -0.00625        0.00000
 BRILLOUIN|   121           0.00031       -0.48125        0.00625        0.00000
 BRILLOUIN|   122           0.00031       -0.48125        0.01875        0.00000
 BRILLOUIN|   123           0.00031       -0.48125        0.03125        0.00000
 BRILLOUIN|   124           0.00031       -0.48125        0.04375        0.00000
 BRILLOUIN|   125           0.00031       -0.48125        0.05625        0.00000
 BRILLOUIN|   126           0.00031       -0.48125        0.06875        0.00000
 BRILLOUIN|   127           0.00031       -0.48125        0.08125        0.00000
 BRILLOUIN|   128           0.00031       -0.48125        0.09375        0.00000
 BRILLOUIN|   129           0.00031       -0.48125        0.10625        0.00000
 BRILLOUIN|   130           0.00031       -0.48125        0.11875        0.00000
 BRILLOUIN|   131           0.00031       -0.48125        0.13125        0.00000
 BRILLOUIN|   132           0.00031       -0.48125        0.14375        0.00000
 BRILLOUIN|   133           0.00031       -0.48125        0.15625        0.00000
 BRILLOUIN|   134           0.00031       -0.48125        0.16875        0.00000
 BRILLOUIN|   135           0.00031       -0.48125        0.18125        0.00000
 BRILLOUIN|   136           0.00031       -0.48125        0.19375        0.00000
 BRILLOUIN|   137           0.00031       -0.48125        0.20625        0.00000
 BRILLOUIN|   138           0.00031       -0.48125        0.21875        0.00000
 BRILLOUIN|   139           0.00031       -0.48125        0.23125        0.00000
 BRILLOUIN|   140           0.00031       -0.48125        0.24375        0.00000
 BRILLOUIN|   141           0.00031       -0.48125        0.25625        0.00000
 BRILLOUIN|   142           0.00031       -0.48125        0.26875        0.00000
 BRILLOUIN|   143           0.00031       -0.48125        0.28125        0.00000
 BRILLOUIN|   144           0.00031       -0.48125        0.29375        0.00000
 BRILLOUIN|   145           0.00031       -0.48125        0.30625        0.00000
 BRILLOUIN|   146           0.00031       -0.48125        0.31875        0.00000
 BRILLOUIN|   147           0.00031       -0.48125        0.33125        0.00000
 BRILLOUIN|   148           0.00031       -0.48125        0.34375        0.00000
 BRILLOUIN|   149           0.00031       -0.48125        0.35625        0.00000
 BRILLOUIN|   150           0.00031       -0.48125        0.36875        0.00000
 BRILLOUIN|   151           0.00031       -0.48125        0.38125        0.00000
 BRILLOUIN|   152           0.00031       -0.48125        0.39375        0.00000
 BRILLOUIN|   153           0.00031       -0.48125        0.40625        0.00000
 BRILLOUIN|   154           0.00031       -0.48125        0.41875        0.00000
 BRILLOUIN|   155           0.00031       -0.48125        0.43125        0.00000
 BRILLOUIN|   156           0.00031       -0.48125        0.44375        0.00000
 BRILLOUIN|   157           0.00031       -0.48125        0.45625        0.00000
 BRILLOUIN|   158           0.00031       -0.48125        0.46875        0.00000
 BRILLOUIN|   159           0.00031       -0.48125        0.48125        0.00000
 BRILLOUIN|   160           0.00031       -0.48125        0.49375        0.00000
 BRILLOUIN|   161           0.00031       -0.46875       -0.49375        0.00000
 BRILLOUIN|   162           0.00031       -0.46875       -0.48125        0.00000
 BRILLOUIN|   163           0.00031       -0.46875       -0.46875        0.00000
 BRILLOUIN|   164           0.00031       -0.46875       -0.45625        0.00000
 BRILLOUIN|   165           0.00031       -0.46875       -0.44375        0.00000
 BRILLOUIN|   166           0.00031       -0.46875       -0.43125        0.00000
 BRILLOUIN|   167           0.00031       -0.46875       -0.41875        0.00000
 BRILLOUIN|   168           0.00031       -0.46875       -0.40625        0.00000
 BRILLOUIN|   169           0.00031       -0.46875       -0.39375        0.00000
 BRILLOUIN|   170           0.00031       -0.46875       -0.38125        0.00000
 BRILLOUIN|   171           0.00031       -0.46875       -0.36875        0.00000
 BRILLOUIN|   172           0.00031       -0.46875       -0.35625        0.00000
 BRILLOUIN|   173           0.00031       -0.46875       -0.34375        0.00000
 BRILLOUIN|   174           0.00031       -0.46875       -0.33125        0.00000
 BRILLOUIN|   175           0.00031       -0.46875       -0.31875        0.00000
 BRILLOUIN|   176           0.00031       -0.46875       -0.30625        0.00000
 BRILLOUIN|   177           0.00031       -0.46875       -0.29375        0.00000
 BRILLOUIN|   178           0.00031       -0.46875       -0.28125        0.00000
 BRILLOUIN|   179           0.00031       -0.46875       -0.26875        0.00000
 BRILLOUIN|   180           0.00031       -0.46875       -0.25625        0.00000
 BRILLOUIN|   181           0.00031       -0.46875       -0.24375        0.00000
 BRILLOUIN|   182           0.00031       -0.46875       -0.23125        0.00000
 BRILLOUIN|   183           0.00031       -0.46875       -0.21875        0.00000
 BRILLOUIN|   184           0.00031       -0.46875       -0.20625        0.00000
 BRILLOUIN|   185           0.00031       -0.46875       -0.19375        0.00000
 BRILLOUIN|   186           0.00031       -0.46875       -0.18125        0.00000
 BRILLOUIN|   187           0.00031       -0.46875       -0.16875        0.00000
 BRILLOUIN|   188           0.00031       -0.46875       -0.15625        0.00000
 BRILLOUIN|   189           0.00031       -0.46875       -0.14375        0.00000
 BRILLOUIN|   190           0.00031       -0.46875       -0.13125        0.00000
 BRILLOUIN|   191           0.00031       -0.46875       -0.11875        0.00000
 BRILLOUIN|   192           0.00031       -0.46875       -0.10625        0.00000
 BRILLOUIN|   193           0.00031       -0.46875       -0.09375        0.00000
 BRILLOUIN|   194           0.00031       -0.46875       -0.08125        0.00000
 BRILLOUIN|   195           0.00031       -0.46875       -0.06875        0.00000
 BRILLOUIN|   196           0.00031       -0.46875       -0.05625        0.00000
 BRILLOUIN|   197           0.00031       -0.46875       -0.04375        0.00000
 BRILLOUIN|   198           0.00031       -0.46875       -0.03125        0.00000
 BRILLOUIN|   199           0.00031       -0.46875       -0.01875        0.00000
 BRILLOUIN|   200           0.00031       -0.46875       -0.00625        0.00000
 BRILLOUIN|   201           0.00031       -0.46875        0.00625        0.00000
 BRILLOUIN|   202           0.00031       -0.46875        0.01875        0.00000
 BRILLOUIN|   203           0.00031       -0.46875        0.03125        0.00000
 BRILLOUIN|   204           0.00031       -0.46875        0.04375        0.00000
 BRILLOUIN|   205           0.00031       -0.46875        0.05625        0.00000
 BRILLOUIN|   206           0.00031       -0.46875        0.06875        0.00000
 BRILLOUIN|   207           0.00031       -0.46875        0.08125        0.00000
 BRILLOUIN|   208           0.00031       -0.46875        0.09375        0.00000
 BRILLOUIN|   209           0.00031       -0.46875        0.10625        0.00000
 BRILLOUIN|   210           0.00031       -0.46875        0.11875        0.00000
 BRILLOUIN|   211           0.00031       -0.46875        0.13125        0.00000
 BRILLOUIN|   212           0.00031       -0.46875        0.14375        0.00000
 BRILLOUIN|   213           0.00031       -0.46875        0.15625        0.00000
 BRILLOUIN|   214           0.00031       -0.46875        0.16875        0.00000
 BRILLOUIN|   215           0.00031       -0.46875        0.18125        0.00000
 BRILLOUIN|   216           0.00031       -0.46875        0.19375        0.00000
 BRILLOUIN|   217           0.00031       -0.46875        0.20625        0.00000
 BRILLOUIN|   218           0.00031       -0.46875        0.21875        0.00000
 BRILLOUIN|   219           0.00031       -0.46875        0.23125        0.00000
 BRILLOUIN|   220           0.00031       -0.46875        0.24375        0.00000
 BRILLOUIN|   221           0.00031       -0.46875        0.25625        0.00000
 BRILLOUIN|   222           0.00031       -0.46875        0.26875        0.00000
 BRILLOUIN|   223           0.00031       -0.46875        0.28125        0.00000
 BRILLOUIN|   224           0.00031       -0.46875        0.29375        0.00000
 BRILLOUIN|   225           0.00031       -0.46875        0.30625        0.00000
 BRILLOUIN|   226           0.00031       -0.46875        0.31875        0.00000
 BRILLOUIN|   227           0.00031       -0.46875        0.33125        0.00000
 BRILLOUIN|   228           0.00031       -0.46875        0.34375        0.00000
 BRILLOUIN|   229           0.00031       -0.46875        0.35625        0.00000
 BRILLOUIN|   230           0.00031       -0.46875        0.36875        0.00000
 BRILLOUIN|   231           0.00031       -0.46875        0.38125        0.00000
 BRILLOUIN|   232           0.00031       -0.46875        0.39375        0.00000
 BRILLOUIN|   233           0.00031       -0.46875        0.40625        0.00000
 BRILLOUIN|   234           0.00031       -0.46875        0.41875        0.00000
 BRILLOUIN|   235           0.00031       -0.46875        0.43125        0.00000
 BRILLOUIN|   236           0.00031       -0.46875        0.44375        0.00000
 BRILLOUIN|   237           0.00031       -0.46875        0.45625        0.00000
 BRILLOUIN|   238           0.00031       -0.46875        0.46875        0.00000
 BRILLOUIN|   239           0.00031       -0.46875        0.48125        0.00000
 BRILLOUIN|   240           0.00031       -0.46875        0.49375        0.00000
 BRILLOUIN|   241           0.00031       -0.45625       -0.49375        0.00000
 BRILLOUIN|   242           0.00031       -0.45625       -0.48125        0.00000
 BRILLOUIN|   243           0.00031       -0.45625       -0.46875        0.00000
 BRILLOUIN|   244           0.00031       -0.45625       -0.45625        0.00000
 BRILLOUIN|   245           0.00031       -0.45625       -0.44375        0.00000
 BRILLOUIN|   246           0.00031       -0.45625       -0.43125        0.00000
 BRILLOUIN|   247           0.00031       -0.45625       -0.41875        0.00000
 BRILLOUIN|   248           0.00031       -0.45625       -0.40625        0.00000
 BRILLOUIN|   249           0.00031       -0.45625       -0.39375        0.00000
 BRILLOUIN|   250           0.00031       -0.45625       -0.38125        0.00000
 BRILLOUIN|   251           0.00031       -0.45625       -0.36875        0.00000
 BRILLOUIN|   252           0.00031       -0.45625       -0.35625        0.00000
 BRILLOUIN|   253           0.00031       -0.45625       -0.34375        0.00000
 BRILLOUIN|   254           0.00031       -0.45625       -0.33125        0.00000
 BRILLOUIN|   255           0.00031       -0.45625       -0.31875        0.00000
 BRILLOUIN|   256           0.00031       -0.45625       -0.30625        0.00000
 BRILLOUIN|   257           0.00031       -0.45625       -0.29375        0.00000
 BRILLOUIN|   258           0.00031       -0.45625       -0.28125        0.00000
 BRILLOUIN|   259           0.00031       -0.45625       -0.26875        0.00000
 BRILLOUIN|   260           0.00031       -0.45625       -0.25625        0.00000
 BRILLOUIN|   261           0.00031       -0.45625       -0.24375        0.00000
 BRILLOUIN|   262           0.00031       -0.45625       -0.23125        0.00000
 BRILLOUIN|   263           0.00031       -0.45625       -0.21875        0.00000
 BRILLOUIN|   264           0.00031       -0.45625       -0.20625        0.00000
 BRILLOUIN|   265           0.00031       -0.45625       -0.19375        0.00000
 BRILLOUIN|   266           0.00031       -0.45625       -0.18125        0.00000
 BRILLOUIN|   267           0.00031       -0.45625       -0.16875        0.00000
 BRILLOUIN|   268           0.00031       -0.45625       -0.15625        0.00000
 BRILLOUIN|   269           0.00031       -0.45625       -0.14375        0.00000
 BRILLOUIN|   270           0.00031       -0.45625       -0.13125        0.00000
 BRILLOUIN|   271           0.00031       -0.45625       -0.11875        0.00000
 BRILLOUIN|   272           0.00031       -0.45625       -0.10625        0.00000
 BRILLOUIN|   273           0.00031       -0.45625       -0.09375        0.00000
 BRILLOUIN|   274           0.00031       -0.45625       -0.08125        0.00000
 BRILLOUIN|   275           0.00031       -0.45625       -0.06875        0.00000
 BRILLOUIN|   276           0.00031       -0.45625       -0.05625        0.00000
 BRILLOUIN|   277           0.00031       -0.45625       -0.04375        0.00000
 BRILLOUIN|   278           0.00031       -0.45625       -0.03125        0.00000
 BRILLOUIN|   279           0.00031       -0.45625       -0.01875        0.00000
 BRILLOUIN|   280           0.00031       -0.45625       -0.00625        0.00000
 BRILLOUIN|   281           0.00031       -0.45625        0.00625        0.00000
 BRILLOUIN|   282           0.00031       -0.45625        0.01875        0.00000
 BRILLOUIN|   283           0.00031       -0.45625        0.03125        0.00000
 BRILLOUIN|   284           0.00031       -0.45625        0.04375        0.00000
 BRILLOUIN|   285           0.00031       -0.45625        0.05625        0.00000
 BRILLOUIN|   286           0.00031       -0.45625        0.06875        0.00000
 BRILLOUIN|   287           0.00031       -0.45625        0.08125        0.00000
 BRILLOUIN|   288           0.00031       -0.45625        0.09375        0.00000
 BRILLOUIN|   289           0.00031       -0.45625        0.10625        0.00000
 BRILLOUIN|   290           0.00031       -0.45625        0.11875        0.00000
 BRILLOUIN|   291           0.00031       -0.45625        0.13125        0.00000
 BRILLOUIN|   292           0.00031       -0.45625        0.14375        0.00000
 BRILLOUIN|   293           0.00031       -0.45625        0.15625        0.00000
 BRILLOUIN|   294           0.00031       -0.45625        0.16875        0.00000
 BRILLOUIN|   295           0.00031       -0.45625        0.18125        0.00000
 BRILLOUIN|   296           0.00031       -0.45625        0.19375        0.00000
 BRILLOUIN|   297           0.00031       -0.45625        0.20625        0.00000
 BRILLOUIN|   298           0.00031       -0.45625        0.21875        0.00000
 BRILLOUIN|   299           0.00031       -0.45625        0.23125        0.00000
 BRILLOUIN|   300           0.00031       -0.45625        0.24375        0.00000
 BRILLOUIN|   301           0.00031       -0.45625        0.25625        0.00000
 BRILLOUIN|   302           0.00031       -0.45625        0.26875        0.00000
 BRILLOUIN|   303           0.00031       -0.45625        0.28125        0.00000
 BRILLOUIN|   304           0.00031       -0.45625        0.29375        0.00000
 BRILLOUIN|   305           0.00031       -0.45625        0.30625        0.00000
 BRILLOUIN|   306           0.00031       -0.45625        0.31875        0.00000
 BRILLOUIN|   307           0.00031       -0.45625        0.33125        0.00000
 BRILLOUIN|   308           0.00031       -0.45625        0.34375        0.00000
 BRILLOUIN|   309           0.00031       -0.45625        0.35625        0.00000
 BRILLOUIN|   310           0.00031       -0.45625        0.36875        0.00000
 BRILLOUIN|   311           0.00031       -0.45625        0.38125        0.00000
 BRILLOUIN|   312           0.00031       -0.45625        0.39375        0.00000
 BRILLOUIN|   313           0.00031       -0.45625        0.40625        0.00000
 BRILLOUIN|   314           0.00031       -0.45625        0.41875        0.00000
 BRILLOUIN|   315           0.00031       -0.45625        0.43125        0.00000
 BRILLOUIN|   316           0.00031       -0.45625        0.44375        0.00000
 BRILLOUIN|   317           0.00031       -0.45625        0.45625        0.00000
 BRILLOUIN|   318           0.00031       -0.45625        0.46875        0.00000
 BRILLOUIN|   319           0.00031       -0.45625        0.48125        0.00000
 BRILLOUIN|   320           0.00031       -0.45625        0.49375        0.00000
 BRILLOUIN|   321           0.00031       -0.44375       -0.49375        0.00000
 BRILLOUIN|   322           0.00031       -0.44375       -0.48125        0.00000
 BRILLOUIN|   323           0.00031       -0.44375       -0.46875        0.00000
 BRILLOUIN|   324           0.00031       -0.44375       -0.45625        0.00000
 BRILLOUIN|   325           0.00031       -0.44375       -0.44375        0.00000
 BRILLOUIN|   326           0.00031       -0.44375       -0.43125        0.00000
 BRILLOUIN|   327           0.00031       -0.44375       -0.41875        0.00000
 BRILLOUIN|   328           0.00031       -0.44375       -0.40625        0.00000
 BRILLOUIN|   329           0.00031       -0.44375       -0.39375        0.00000
 BRILLOUIN|   330           0.00031       -0.44375       -0.38125        0.00000
 BRILLOUIN|   331           0.00031       -0.44375       -0.36875        0.00000
 BRILLOUIN|   332           0.00031       -0.44375       -0.35625        0.00000
 BRILLOUIN|   333           0.00031       -0.44375       -0.34375        0.00000
 BRILLOUIN|   334           0.00031       -0.44375       -0.33125        0.00000
 BRILLOUIN|   335           0.00031       -0.44375       -0.31875        0.00000
 BRILLOUIN|   336           0.00031       -0.44375       -0.30625        0.00000
 BRILLOUIN|   337           0.00031       -0.44375       -0.29375        0.00000
 BRILLOUIN|   338           0.00031       -0.44375       -0.28125        0.00000
 BRILLOUIN|   339           0.00031       -0.44375       -0.26875        0.00000
 BRILLOUIN|   340           0.00031       -0.44375       -0.25625        0.00000
 BRILLOUIN|   341           0.00031       -0.44375       -0.24375        0.00000
 BRILLOUIN|   342           0.00031       -0.44375       -0.23125        0.00000
 BRILLOUIN|   343           0.00031       -0.44375       -0.21875        0.00000
 BRILLOUIN|   344           0.00031       -0.44375       -0.20625        0.00000
 BRILLOUIN|   345           0.00031       -0.44375       -0.19375        0.00000
 BRILLOUIN|   346           0.00031       -0.44375       -0.18125        0.00000
 BRILLOUIN|   347           0.00031       -0.44375       -0.16875        0.00000
 BRILLOUIN|   348           0.00031       -0.44375       -0.15625        0.00000
 BRILLOUIN|   349           0.00031       -0.44375       -0.14375        0.00000
 BRILLOUIN|   350           0.00031       -0.44375       -0.13125        0.00000
 BRILLOUIN|   351           0.00031       -0.44375       -0.11875        0.00000
 BRILLOUIN|   352           0.00031       -0.44375       -0.10625        0.00000
 BRILLOUIN|   353           0.00031       -0.44375       -0.09375        0.00000
 BRILLOUIN|   354           0.00031       -0.44375       -0.08125        0.00000
 BRILLOUIN|   355           0.00031       -0.44375       -0.06875        0.00000
 BRILLOUIN|   356           0.00031       -0.44375       -0.05625        0.00000
 BRILLOUIN|   357           0.00031       -0.44375       -0.04375        0.00000
 BRILLOUIN|   358           0.00031       -0.44375       -0.03125        0.00000
 BRILLOUIN|   359           0.00031       -0.44375       -0.01875        0.00000
 BRILLOUIN|   360           0.00031       -0.44375       -0.00625        0.00000
 BRILLOUIN|   361           0.00031       -0.44375        0.00625        0.00000
 BRILLOUIN|   362           0.00031       -0.44375        0.01875        0.00000
 BRILLOUIN|   363           0.00031       -0.44375        0.03125        0.00000
 BRILLOUIN|   364           0.00031       -0.44375        0.04375        0.00000
 BRILLOUIN|   365           0.00031       -0.44375        0.05625        0.00000
 BRILLOUIN|   366           0.00031       -0.44375        0.06875        0.00000
 BRILLOUIN|   367           0.00031       -0.44375        0.08125        0.00000
 BRILLOUIN|   368           0.00031       -0.44375        0.09375        0.00000
 BRILLOUIN|   369           0.00031       -0.44375        0.10625        0.00000
 BRILLOUIN|   370           0.00031       -0.44375        0.11875        0.00000
 BRILLOUIN|   371           0.00031       -0.44375        0.13125        0.00000
 BRILLOUIN|   372           0.00031       -0.44375        0.14375        0.00000
 BRILLOUIN|   373           0.00031       -0.44375        0.15625        0.00000
 BRILLOUIN|   374           0.00031       -0.44375        0.16875        0.00000
 BRILLOUIN|   375           0.00031       -0.44375        0.18125        0.00000
 BRILLOUIN|   376           0.00031       -0.44375        0.19375        0.00000
 BRILLOUIN|   377           0.00031       -0.44375        0.20625        0.00000
 BRILLOUIN|   378           0.00031       -0.44375        0.21875        0.00000
 BRILLOUIN|   379           0.00031       -0.44375        0.23125        0.00000
 BRILLOUIN|   380           0.00031       -0.44375        0.24375        0.00000
 BRILLOUIN|   381           0.00031       -0.44375        0.25625        0.00000
 BRILLOUIN|   382           0.00031       -0.44375        0.26875        0.00000
 BRILLOUIN|   383           0.00031       -0.44375        0.28125        0.00000
 BRILLOUIN|   384           0.00031       -0.44375        0.29375        0.00000
 BRILLOUIN|   385           0.00031       -0.44375        0.30625        0.00000
 BRILLOUIN|   386           0.00031       -0.44375        0.31875        0.00000
 BRILLOUIN|   387           0.00031       -0.44375        0.33125        0.00000
 BRILLOUIN|   388           0.00031       -0.44375        0.34375        0.00000
 BRILLOUIN|   389           0.00031       -0.44375        0.35625        0.00000
 BRILLOUIN|   390           0.00031       -0.44375        0.36875        0.00000
 BRILLOUIN|   391           0.00031       -0.44375        0.38125        0.00000
 BRILLOUIN|   392           0.00031       -0.44375        0.39375        0.00000
 BRILLOUIN|   393           0.00031       -0.44375        0.40625        0.00000
 BRILLOUIN|   394           0.00031       -0.44375        0.41875        0.00000
 BRILLOUIN|   395           0.00031       -0.44375        0.43125        0.00000
 BRILLOUIN|   396           0.00031       -0.44375        0.44375        0.00000
 BRILLOUIN|   397           0.00031       -0.44375        0.45625        0.00000
 BRILLOUIN|   398           0.00031       -0.44375        0.46875        0.00000
 BRILLOUIN|   399           0.00031       -0.44375        0.48125        0.00000
 BRILLOUIN|   400           0.00031       -0.44375        0.49375        0.00000
 BRILLOUIN|   401           0.00031       -0.43125       -0.49375        0.00000
 BRILLOUIN|   402           0.00031       -0.43125       -0.48125        0.00000
 BRILLOUIN|   403           0.00031       -0.43125       -0.46875        0.00000
 BRILLOUIN|   404           0.00031       -0.43125       -0.45625        0.00000
 BRILLOUIN|   405           0.00031       -0.43125       -0.44375        0.00000
 BRILLOUIN|   406           0.00031       -0.43125       -0.43125        0.00000
 BRILLOUIN|   407           0.00031       -0.43125       -0.41875        0.00000
 BRILLOUIN|   408           0.00031       -0.43125       -0.40625        0.00000
 BRILLOUIN|   409           0.00031       -0.43125       -0.39375        0.00000
 BRILLOUIN|   410           0.00031       -0.43125       -0.38125        0.00000
 BRILLOUIN|   411           0.00031       -0.43125       -0.36875        0.00000
 BRILLOUIN|   412           0.00031       -0.43125       -0.35625        0.00000
 BRILLOUIN|   413           0.00031       -0.43125       -0.34375        0.00000
 BRILLOUIN|   414           0.00031       -0.43125       -0.33125        0.00000
 BRILLOUIN|   415           0.00031       -0.43125       -0.31875        0.00000
 BRILLOUIN|   416           0.00031       -0.43125       -0.30625        0.00000
 BRILLOUIN|   417           0.00031       -0.43125       -0.29375        0.00000
 BRILLOUIN|   418           0.00031       -0.43125       -0.28125        0.00000
 BRILLOUIN|   419           0.00031       -0.43125       -0.26875        0.00000
 BRILLOUIN|   420           0.00031       -0.43125       -0.25625        0.00000
 BRILLOUIN|   421           0.00031       -0.43125       -0.24375        0.00000
 BRILLOUIN|   422           0.00031       -0.43125       -0.23125        0.00000
 BRILLOUIN|   423           0.00031       -0.43125       -0.21875        0.00000
 BRILLOUIN|   424           0.00031       -0.43125       -0.20625        0.00000
 BRILLOUIN|   425           0.00031       -0.43125       -0.19375        0.00000
 BRILLOUIN|   426           0.00031       -0.43125       -0.18125        0.00000
 BRILLOUIN|   427           0.00031       -0.43125       -0.16875        0.00000
 BRILLOUIN|   428           0.00031       -0.43125       -0.15625        0.00000
 BRILLOUIN|   429           0.00031       -0.43125       -0.14375        0.00000
 BRILLOUIN|   430           0.00031       -0.43125       -0.13125        0.00000
 BRILLOUIN|   431           0.00031       -0.43125       -0.11875        0.00000
 BRILLOUIN|   432           0.00031       -0.43125       -0.10625        0.00000
 BRILLOUIN|   433           0.00031       -0.43125       -0.09375        0.00000
 BRILLOUIN|   434           0.00031       -0.43125       -0.08125        0.00000
 BRILLOUIN|   435           0.00031       -0.43125       -0.06875        0.00000
 BRILLOUIN|   436           0.00031       -0.43125       -0.05625        0.00000
 BRILLOUIN|   437           0.00031       -0.43125       -0.04375        0.00000
 BRILLOUIN|   438           0.00031       -0.43125       -0.03125        0.00000
 BRILLOUIN|   439           0.00031       -0.43125       -0.01875        0.00000
 BRILLOUIN|   440           0.00031       -0.43125       -0.00625        0.00000
 BRILLOUIN|   441           0.00031       -0.43125        0.00625        0.00000
 BRILLOUIN|   442           0.00031       -0.43125        0.01875        0.00000
 BRILLOUIN|   443           0.00031       -0.43125        0.03125        0.00000
 BRILLOUIN|   444           0.00031       -0.43125        0.04375        0.00000
 BRILLOUIN|   445           0.00031       -0.43125        0.05625        0.00000
 BRILLOUIN|   446           0.00031       -0.43125        0.06875        0.00000
 BRILLOUIN|   447           0.00031       -0.43125        0.08125        0.00000
 BRILLOUIN|   448           0.00031       -0.43125        0.09375        0.00000
 BRILLOUIN|   449           0.00031       -0.43125        0.10625        0.00000
 BRILLOUIN|   450           0.00031       -0.43125        0.11875        0.00000
 BRILLOUIN|   451           0.00031       -0.43125        0.13125        0.00000
 BRILLOUIN|   452           0.00031       -0.43125        0.14375        0.00000
 BRILLOUIN|   453           0.00031       -0.43125        0.15625        0.00000
 BRILLOUIN|   454           0.00031       -0.43125        0.16875        0.00000
 BRILLOUIN|   455           0.00031       -0.43125        0.18125        0.00000
 BRILLOUIN|   456           0.00031       -0.43125        0.19375        0.00000
 BRILLOUIN|   457           0.00031       -0.43125        0.20625        0.00000
 BRILLOUIN|   458           0.00031       -0.43125        0.21875        0.00000
 BRILLOUIN|   459           0.00031       -0.43125        0.23125        0.00000
 BRILLOUIN|   460           0.00031       -0.43125        0.24375        0.00000
 BRILLOUIN|   461           0.00031       -0.43125        0.25625        0.00000
 BRILLOUIN|   462           0.00031       -0.43125        0.26875        0.00000
 BRILLOUIN|   463           0.00031       -0.43125        0.28125        0.00000
 BRILLOUIN|   464           0.00031       -0.43125        0.29375        0.00000
 BRILLOUIN|   465           0.00031       -0.43125        0.30625        0.00000
 BRILLOUIN|   466           0.00031       -0.43125        0.31875        0.00000
 BRILLOUIN|   467           0.00031       -0.43125        0.33125        0.00000
 BRILLOUIN|   468           0.00031       -0.43125        0.34375        0.00000
 BRILLOUIN|   469           0.00031       -0.43125        0.35625        0.00000
 BRILLOUIN|   470           0.00031       -0.43125        0.36875        0.00000
 BRILLOUIN|   471           0.00031       -0.43125        0.38125        0.00000
 BRILLOUIN|   472           0.00031       -0.43125        0.39375        0.00000
 BRILLOUIN|   473           0.00031       -0.43125        0.40625        0.00000
 BRILLOUIN|   474           0.00031       -0.43125        0.41875        0.00000
 BRILLOUIN|   475           0.00031       -0.43125        0.43125        0.00000
 BRILLOUIN|   476           0.00031       -0.43125        0.44375        0.00000
 BRILLOUIN|   477           0.00031       -0.43125        0.45625        0.00000
 BRILLOUIN|   478           0.00031       -0.43125        0.46875        0.00000
 BRILLOUIN|   479           0.00031       -0.43125        0.48125        0.00000
 BRILLOUIN|   480           0.00031       -0.43125        0.49375        0.00000
 BRILLOUIN|   481           0.00031       -0.41875       -0.49375        0.00000
 BRILLOUIN|   482           0.00031       -0.41875       -0.48125        0.00000
 BRILLOUIN|   483           0.00031       -0.41875       -0.46875        0.00000
 BRILLOUIN|   484           0.00031       -0.41875       -0.45625        0.00000
 BRILLOUIN|   485           0.00031       -0.41875       -0.44375        0.00000
 BRILLOUIN|   486           0.00031       -0.41875       -0.43125        0.00000
 BRILLOUIN|   487           0.00031       -0.41875       -0.41875        0.00000
 BRILLOUIN|   488           0.00031       -0.41875       -0.40625        0.00000
 BRILLOUIN|   489           0.00031       -0.41875       -0.39375        0.00000
 BRILLOUIN|   490           0.00031       -0.41875       -0.38125        0.00000
 BRILLOUIN|   491           0.00031       -0.41875       -0.36875        0.00000
 BRILLOUIN|   492           0.00031       -0.41875       -0.35625        0.00000
 BRILLOUIN|   493           0.00031       -0.41875       -0.34375        0.00000
 BRILLOUIN|   494           0.00031       -0.41875       -0.33125        0.00000
 BRILLOUIN|   495           0.00031       -0.41875       -0.31875        0.00000
 BRILLOUIN|   496           0.00031       -0.41875       -0.30625        0.00000
 BRILLOUIN|   497           0.00031       -0.41875       -0.29375        0.00000
 BRILLOUIN|   498           0.00031       -0.41875       -0.28125        0.00000
 BRILLOUIN|   499           0.00031       -0.41875       -0.26875        0.00000
 BRILLOUIN|   500           0.00031       -0.41875       -0.25625        0.00000
 BRILLOUIN|   501           0.00031       -0.41875       -0.24375        0.00000
 BRILLOUIN|   502           0.00031       -0.41875       -0.23125        0.00000
 BRILLOUIN|   503           0.00031       -0.41875       -0.21875        0.00000
 BRILLOUIN|   504           0.00031       -0.41875       -0.20625        0.00000
 BRILLOUIN|   505           0.00031       -0.41875       -0.19375        0.00000
 BRILLOUIN|   506           0.00031       -0.41875       -0.18125        0.00000
 BRILLOUIN|   507           0.00031       -0.41875       -0.16875        0.00000
 BRILLOUIN|   508           0.00031       -0.41875       -0.15625        0.00000
 BRILLOUIN|   509           0.00031       -0.41875       -0.14375        0.00000
 BRILLOUIN|   510           0.00031       -0.41875       -0.13125        0.00000
 BRILLOUIN|   511           0.00031       -0.41875       -0.11875        0.00000
 BRILLOUIN|   512           0.00031       -0.41875       -0.10625        0.00000
 BRILLOUIN|   513           0.00031       -0.41875       -0.09375        0.00000
 BRILLOUIN|   514           0.00031       -0.41875       -0.08125        0.00000
 BRILLOUIN|   515           0.00031       -0.41875       -0.06875        0.00000
 BRILLOUIN|   516           0.00031       -0.41875       -0.05625        0.00000
 BRILLOUIN|   517           0.00031       -0.41875       -0.04375        0.00000
 BRILLOUIN|   518           0.00031       -0.41875       -0.03125        0.00000
 BRILLOUIN|   519           0.00031       -0.41875       -0.01875        0.00000
 BRILLOUIN|   520           0.00031       -0.41875       -0.00625        0.00000
 BRILLOUIN|   521           0.00031       -0.41875        0.00625        0.00000
 BRILLOUIN|   522           0.00031       -0.41875        0.01875        0.00000
 BRILLOUIN|   523           0.00031       -0.41875        0.03125        0.00000
 BRILLOUIN|   524           0.00031       -0.41875        0.04375        0.00000
 BRILLOUIN|   525           0.00031       -0.41875        0.05625        0.00000
 BRILLOUIN|   526           0.00031       -0.41875        0.06875        0.00000
 BRILLOUIN|   527           0.00031       -0.41875        0.08125        0.00000
 BRILLOUIN|   528           0.00031       -0.41875        0.09375        0.00000
 BRILLOUIN|   529           0.00031       -0.41875        0.10625        0.00000
 BRILLOUIN|   530           0.00031       -0.41875        0.11875        0.00000
 BRILLOUIN|   531           0.00031       -0.41875        0.13125        0.00000
 BRILLOUIN|   532           0.00031       -0.41875        0.14375        0.00000
 BRILLOUIN|   533           0.00031       -0.41875        0.15625        0.00000
 BRILLOUIN|   534           0.00031       -0.41875        0.16875        0.00000
 BRILLOUIN|   535           0.00031       -0.41875        0.18125        0.00000
 BRILLOUIN|   536           0.00031       -0.41875        0.19375        0.00000
 BRILLOUIN|   537           0.00031       -0.41875        0.20625        0.00000
 BRILLOUIN|   538           0.00031       -0.41875        0.21875        0.00000
 BRILLOUIN|   539           0.00031       -0.41875        0.23125        0.00000
 BRILLOUIN|   540           0.00031       -0.41875        0.24375        0.00000
 BRILLOUIN|   541           0.00031       -0.41875        0.25625        0.00000
 BRILLOUIN|   542           0.00031       -0.41875        0.26875        0.00000
 BRILLOUIN|   543           0.00031       -0.41875        0.28125        0.00000
 BRILLOUIN|   544           0.00031       -0.41875        0.29375        0.00000
 BRILLOUIN|   545           0.00031       -0.41875        0.30625        0.00000
 BRILLOUIN|   546           0.00031       -0.41875        0.31875        0.00000
 BRILLOUIN|   547           0.00031       -0.41875        0.33125        0.00000
 BRILLOUIN|   548           0.00031       -0.41875        0.34375        0.00000
 BRILLOUIN|   549           0.00031       -0.41875        0.35625        0.00000
 BRILLOUIN|   550           0.00031       -0.41875        0.36875        0.00000
 BRILLOUIN|   551           0.00031       -0.41875        0.38125        0.00000
 BRILLOUIN|   552           0.00031       -0.41875        0.39375        0.00000
 BRILLOUIN|   553           0.00031       -0.41875        0.40625        0.00000
 BRILLOUIN|   554           0.00031       -0.41875        0.41875        0.00000
 BRILLOUIN|   555           0.00031       -0.41875        0.43125        0.00000
 BRILLOUIN|   556           0.00031       -0.41875        0.44375        0.00000
 BRILLOUIN|   557           0.00031       -0.41875        0.45625        0.00000
 BRILLOUIN|   558           0.00031       -0.41875        0.46875        0.00000
 BRILLOUIN|   559           0.00031       -0.41875        0.48125        0.00000
 BRILLOUIN|   560           0.00031       -0.41875        0.49375        0.00000
 BRILLOUIN|   561           0.00031       -0.40625       -0.49375        0.00000
 BRILLOUIN|   562           0.00031       -0.40625       -0.48125        0.00000
 BRILLOUIN|   563           0.00031       -0.40625       -0.46875        0.00000
 BRILLOUIN|   564           0.00031       -0.40625       -0.45625        0.00000
 BRILLOUIN|   565           0.00031       -0.40625       -0.44375        0.00000
 BRILLOUIN|   566           0.00031       -0.40625       -0.43125        0.00000
 BRILLOUIN|   567           0.00031       -0.40625       -0.41875        0.00000
 BRILLOUIN|   568           0.00031       -0.40625       -0.40625        0.00000
 BRILLOUIN|   569           0.00031       -0.40625       -0.39375        0.00000
 BRILLOUIN|   570           0.00031       -0.40625       -0.38125        0.00000
 BRILLOUIN|   571           0.00031       -0.40625       -0.36875        0.00000
 BRILLOUIN|   572           0.00031       -0.40625       -0.35625        0.00000
 BRILLOUIN|   573           0.00031       -0.40625       -0.34375        0.00000
 BRILLOUIN|   574           0.00031       -0.40625       -0.33125        0.00000
 BRILLOUIN|   575           0.00031       -0.40625       -0.31875        0.00000
 BRILLOUIN|   576           0.00031       -0.40625       -0.30625        0.00000
 BRILLOUIN|   577           0.00031       -0.40625       -0.29375        0.00000
 BRILLOUIN|   578           0.00031       -0.40625       -0.28125        0.00000
 BRILLOUIN|   579           0.00031       -0.40625       -0.26875        0.00000
 BRILLOUIN|   580           0.00031       -0.40625       -0.25625        0.00000
 BRILLOUIN|   581           0.00031       -0.40625       -0.24375        0.00000
 BRILLOUIN|   582           0.00031       -0.40625       -0.23125        0.00000
 BRILLOUIN|   583           0.00031       -0.40625       -0.21875        0.00000
 BRILLOUIN|   584           0.00031       -0.40625       -0.20625        0.00000
 BRILLOUIN|   585           0.00031       -0.40625       -0.19375        0.00000
 BRILLOUIN|   586           0.00031       -0.40625       -0.18125        0.00000
 BRILLOUIN|   587           0.00031       -0.40625       -0.16875        0.00000
 BRILLOUIN|   588           0.00031       -0.40625       -0.15625        0.00000
 BRILLOUIN|   589           0.00031       -0.40625       -0.14375        0.00000
 BRILLOUIN|   590           0.00031       -0.40625       -0.13125        0.00000
 BRILLOUIN|   591           0.00031       -0.40625       -0.11875        0.00000
 BRILLOUIN|   592           0.00031       -0.40625       -0.10625        0.00000
 BRILLOUIN|   593           0.00031       -0.40625       -0.09375        0.00000
 BRILLOUIN|   594           0.00031       -0.40625       -0.08125        0.00000
 BRILLOUIN|   595           0.00031       -0.40625       -0.06875        0.00000
 BRILLOUIN|   596           0.00031       -0.40625       -0.05625        0.00000
 BRILLOUIN|   597           0.00031       -0.40625       -0.04375        0.00000
 BRILLOUIN|   598           0.00031       -0.40625       -0.03125        0.00000
 BRILLOUIN|   599           0.00031       -0.40625       -0.01875        0.00000
 BRILLOUIN|   600           0.00031       -0.40625       -0.00625        0.00000
 BRILLOUIN|   601           0.00031       -0.40625        0.00625        0.00000
 BRILLOUIN|   602           0.00031       -0.40625        0.01875        0.00000
 BRILLOUIN|   603           0.00031       -0.40625        0.03125        0.00000
 BRILLOUIN|   604           0.00031       -0.40625        0.04375        0.00000
 BRILLOUIN|   605           0.00031       -0.40625        0.05625        0.00000
 BRILLOUIN|   606           0.00031       -0.40625        0.06875        0.00000
 BRILLOUIN|   607           0.00031       -0.40625        0.08125        0.00000
 BRILLOUIN|   608           0.00031       -0.40625        0.09375        0.00000
 BRILLOUIN|   609           0.00031       -0.40625        0.10625        0.00000
 BRILLOUIN|   610           0.00031       -0.40625        0.11875        0.00000
 BRILLOUIN|   611           0.00031       -0.40625        0.13125        0.00000
 BRILLOUIN|   612           0.00031       -0.40625        0.14375        0.00000
 BRILLOUIN|   613           0.00031       -0.40625        0.15625        0.00000
 BRILLOUIN|   614           0.00031       -0.40625        0.16875        0.00000
 BRILLOUIN|   615           0.00031       -0.40625        0.18125        0.00000
 BRILLOUIN|   616           0.00031       -0.40625        0.19375        0.00000
 BRILLOUIN|   617           0.00031       -0.40625        0.20625        0.00000
 BRILLOUIN|   618           0.00031       -0.40625        0.21875        0.00000
 BRILLOUIN|   619           0.00031       -0.40625        0.23125        0.00000
 BRILLOUIN|   620           0.00031       -0.40625        0.24375        0.00000
 BRILLOUIN|   621           0.00031       -0.40625        0.25625        0.00000
 BRILLOUIN|   622           0.00031       -0.40625        0.26875        0.00000
 BRILLOUIN|   623           0.00031       -0.40625        0.28125        0.00000
 BRILLOUIN|   624           0.00031       -0.40625        0.29375        0.00000
 BRILLOUIN|   625           0.00031       -0.40625        0.30625        0.00000
 BRILLOUIN|   626           0.00031       -0.40625        0.31875        0.00000
 BRILLOUIN|   627           0.00031       -0.40625        0.33125        0.00000
 BRILLOUIN|   628           0.00031       -0.40625        0.34375        0.00000
 BRILLOUIN|   629           0.00031       -0.40625        0.35625        0.00000
 BRILLOUIN|   630           0.00031       -0.40625        0.36875        0.00000
 BRILLOUIN|   631           0.00031       -0.40625        0.38125        0.00000
 BRILLOUIN|   632           0.00031       -0.40625        0.39375        0.00000
 BRILLOUIN|   633           0.00031       -0.40625        0.40625        0.00000
 BRILLOUIN|   634           0.00031       -0.40625        0.41875        0.00000
 BRILLOUIN|   635           0.00031       -0.40625        0.43125        0.00000
 BRILLOUIN|   636           0.00031       -0.40625        0.44375        0.00000
 BRILLOUIN|   637           0.00031       -0.40625        0.45625        0.00000
 BRILLOUIN|   638           0.00031       -0.40625        0.46875        0.00000
 BRILLOUIN|   639           0.00031       -0.40625        0.48125        0.00000
 BRILLOUIN|   640           0.00031       -0.40625        0.49375        0.00000
 BRILLOUIN|   641           0.00031       -0.39375       -0.49375        0.00000
 BRILLOUIN|   642           0.00031       -0.39375       -0.48125        0.00000
 BRILLOUIN|   643           0.00031       -0.39375       -0.46875        0.00000
 BRILLOUIN|   644           0.00031       -0.39375       -0.45625        0.00000
 BRILLOUIN|   645           0.00031       -0.39375       -0.44375        0.00000
 BRILLOUIN|   646           0.00031       -0.39375       -0.43125        0.00000
 BRILLOUIN|   647           0.00031       -0.39375       -0.41875        0.00000
 BRILLOUIN|   648           0.00031       -0.39375       -0.40625        0.00000
 BRILLOUIN|   649           0.00031       -0.39375       -0.39375        0.00000
 BRILLOUIN|   650           0.00031       -0.39375       -0.38125        0.00000
 BRILLOUIN|   651           0.00031       -0.39375       -0.36875        0.00000
 BRILLOUIN|   652           0.00031       -0.39375       -0.35625        0.00000
 BRILLOUIN|   653           0.00031       -0.39375       -0.34375        0.00000
 BRILLOUIN|   654           0.00031       -0.39375       -0.33125        0.00000
 BRILLOUIN|   655           0.00031       -0.39375       -0.31875        0.00000
 BRILLOUIN|   656           0.00031       -0.39375       -0.30625        0.00000
 BRILLOUIN|   657           0.00031       -0.39375       -0.29375        0.00000
 BRILLOUIN|   658           0.00031       -0.39375       -0.28125        0.00000
 BRILLOUIN|   659           0.00031       -0.39375       -0.26875        0.00000
 BRILLOUIN|   660           0.00031       -0.39375       -0.25625        0.00000
 BRILLOUIN|   661           0.00031       -0.39375       -0.24375        0.00000
 BRILLOUIN|   662           0.00031       -0.39375       -0.23125        0.00000
 BRILLOUIN|   663           0.00031       -0.39375       -0.21875        0.00000
 BRILLOUIN|   664           0.00031       -0.39375       -0.20625        0.00000
 BRILLOUIN|   665           0.00031       -0.39375       -0.19375        0.00000
 BRILLOUIN|   666           0.00031       -0.39375       -0.18125        0.00000
 BRILLOUIN|   667           0.00031       -0.39375       -0.16875        0.00000
 BRILLOUIN|   668           0.00031       -0.39375       -0.15625        0.00000
 BRILLOUIN|   669           0.00031       -0.39375       -0.14375        0.00000
 BRILLOUIN|   670           0.00031       -0.39375       -0.13125        0.00000
 BRILLOUIN|   671           0.00031       -0.39375       -0.11875        0.00000
 BRILLOUIN|   672           0.00031       -0.39375       -0.10625        0.00000
 BRILLOUIN|   673           0.00031       -0.39375       -0.09375        0.00000
 BRILLOUIN|   674           0.00031       -0.39375       -0.08125        0.00000
 BRILLOUIN|   675           0.00031       -0.39375       -0.06875        0.00000
 BRILLOUIN|   676           0.00031       -0.39375       -0.05625        0.00000
 BRILLOUIN|   677           0.00031       -0.39375       -0.04375        0.00000
 BRILLOUIN|   678           0.00031       -0.39375       -0.03125        0.00000
 BRILLOUIN|   679           0.00031       -0.39375       -0.01875        0.00000
 BRILLOUIN|   680           0.00031       -0.39375       -0.00625        0.00000
 BRILLOUIN|   681           0.00031       -0.39375        0.00625        0.00000
 BRILLOUIN|   682           0.00031       -0.39375        0.01875        0.00000
 BRILLOUIN|   683           0.00031       -0.39375        0.03125        0.00000
 BRILLOUIN|   684           0.00031       -0.39375        0.04375        0.00000
 BRILLOUIN|   685           0.00031       -0.39375        0.05625        0.00000
 BRILLOUIN|   686           0.00031       -0.39375        0.06875        0.00000
 BRILLOUIN|   687           0.00031       -0.39375        0.08125        0.00000
 BRILLOUIN|   688           0.00031       -0.39375        0.09375        0.00000
 BRILLOUIN|   689           0.00031       -0.39375        0.10625        0.00000
 BRILLOUIN|   690           0.00031       -0.39375        0.11875        0.00000
 BRILLOUIN|   691           0.00031       -0.39375        0.13125        0.00000
 BRILLOUIN|   692           0.00031       -0.39375        0.14375        0.00000
 BRILLOUIN|   693           0.00031       -0.39375        0.15625        0.00000
 BRILLOUIN|   694           0.00031       -0.39375        0.16875        0.00000
 BRILLOUIN|   695           0.00031       -0.39375        0.18125        0.00000
 BRILLOUIN|   696           0.00031       -0.39375        0.19375        0.00000
 BRILLOUIN|   697           0.00031       -0.39375        0.20625        0.00000
 BRILLOUIN|   698           0.00031       -0.39375        0.21875        0.00000
 BRILLOUIN|   699           0.00031       -0.39375        0.23125        0.00000
 BRILLOUIN|   700           0.00031       -0.39375        0.24375        0.00000
 BRILLOUIN|   701           0.00031       -0.39375        0.25625        0.00000
 BRILLOUIN|   702           0.00031       -0.39375        0.26875        0.00000
 BRILLOUIN|   703           0.00031       -0.39375        0.28125        0.00000
 BRILLOUIN|   704           0.00031       -0.39375        0.29375        0.00000
 BRILLOUIN|   705           0.00031       -0.39375        0.30625        0.00000
 BRILLOUIN|   706           0.00031       -0.39375        0.31875        0.00000
 BRILLOUIN|   707           0.00031       -0.39375        0.33125        0.00000
 BRILLOUIN|   708           0.00031       -0.39375        0.34375        0.00000
 BRILLOUIN|   709           0.00031       -0.39375        0.35625        0.00000
 BRILLOUIN|   710           0.00031       -0.39375        0.36875        0.00000
 BRILLOUIN|   711           0.00031       -0.39375        0.38125        0.00000
 BRILLOUIN|   712           0.00031       -0.39375        0.39375        0.00000
 BRILLOUIN|   713           0.00031       -0.39375        0.40625        0.00000
 BRILLOUIN|   714           0.00031       -0.39375        0.41875        0.00000
 BRILLOUIN|   715           0.00031       -0.39375        0.43125        0.00000
 BRILLOUIN|   716           0.00031       -0.39375        0.44375        0.00000
 BRILLOUIN|   717           0.00031       -0.39375        0.45625        0.00000
 BRILLOUIN|   718           0.00031       -0.39375        0.46875        0.00000
 BRILLOUIN|   719           0.00031       -0.39375        0.48125        0.00000
 BRILLOUIN|   720           0.00031       -0.39375        0.49375        0.00000
 BRILLOUIN|   721           0.00031       -0.38125       -0.49375        0.00000
 BRILLOUIN|   722           0.00031       -0.38125       -0.48125        0.00000
 BRILLOUIN|   723           0.00031       -0.38125       -0.46875        0.00000
 BRILLOUIN|   724           0.00031       -0.38125       -0.45625        0.00000
 BRILLOUIN|   725           0.00031       -0.38125       -0.44375        0.00000
 BRILLOUIN|   726           0.00031       -0.38125       -0.43125        0.00000
 BRILLOUIN|   727           0.00031       -0.38125       -0.41875        0.00000
 BRILLOUIN|   728           0.00031       -0.38125       -0.40625        0.00000
 BRILLOUIN|   729           0.00031       -0.38125       -0.39375        0.00000
 BRILLOUIN|   730           0.00031       -0.38125       -0.38125        0.00000
 BRILLOUIN|   731           0.00031       -0.38125       -0.36875        0.00000
 BRILLOUIN|   732           0.00031       -0.38125       -0.35625        0.00000
 BRILLOUIN|   733           0.00031       -0.38125       -0.34375        0.00000
 BRILLOUIN|   734           0.00031       -0.38125       -0.33125        0.00000
 BRILLOUIN|   735           0.00031       -0.38125       -0.31875        0.00000
 BRILLOUIN|   736           0.00031       -0.38125       -0.30625        0.00000
 BRILLOUIN|   737           0.00031       -0.38125       -0.29375        0.00000
 BRILLOUIN|   738           0.00031       -0.38125       -0.28125        0.00000
 BRILLOUIN|   739           0.00031       -0.38125       -0.26875        0.00000
 BRILLOUIN|   740           0.00031       -0.38125       -0.25625        0.00000
 BRILLOUIN|   741           0.00031       -0.38125       -0.24375        0.00000
 BRILLOUIN|   742           0.00031       -0.38125       -0.23125        0.00000
 BRILLOUIN|   743           0.00031       -0.38125       -0.21875        0.00000
 BRILLOUIN|   744           0.00031       -0.38125       -0.20625        0.00000
 BRILLOUIN|   745           0.00031       -0.38125       -0.19375        0.00000
 BRILLOUIN|   746           0.00031       -0.38125       -0.18125        0.00000
 BRILLOUIN|   747           0.00031       -0.38125       -0.16875        0.00000
 BRILLOUIN|   748           0.00031       -0.38125       -0.15625        0.00000
 BRILLOUIN|   749           0.00031       -0.38125       -0.14375        0.00000
 BRILLOUIN|   750           0.00031       -0.38125       -0.13125        0.00000
 BRILLOUIN|   751           0.00031       -0.38125       -0.11875        0.00000
 BRILLOUIN|   752           0.00031       -0.38125       -0.10625        0.00000
 BRILLOUIN|   753           0.00031       -0.38125       -0.09375        0.00000
 BRILLOUIN|   754           0.00031       -0.38125       -0.08125        0.00000
 BRILLOUIN|   755           0.00031       -0.38125       -0.06875        0.00000
 BRILLOUIN|   756           0.00031       -0.38125       -0.05625        0.00000
 BRILLOUIN|   757           0.00031       -0.38125       -0.04375        0.00000
 BRILLOUIN|   758           0.00031       -0.38125       -0.03125        0.00000
 BRILLOUIN|   759           0.00031       -0.38125       -0.01875        0.00000
 BRILLOUIN|   760           0.00031       -0.38125       -0.00625        0.00000
 BRILLOUIN|   761           0.00031       -0.38125        0.00625        0.00000
 BRILLOUIN|   762           0.00031       -0.38125        0.01875        0.00000
 BRILLOUIN|   763           0.00031       -0.38125        0.03125        0.00000
 BRILLOUIN|   764           0.00031       -0.38125        0.04375        0.00000
 BRILLOUIN|   765           0.00031       -0.38125        0.05625        0.00000
 BRILLOUIN|   766           0.00031       -0.38125        0.06875        0.00000
 BRILLOUIN|   767           0.00031       -0.38125        0.08125        0.00000
 BRILLOUIN|   768           0.00031       -0.38125        0.09375        0.00000
 BRILLOUIN|   769           0.00031       -0.38125        0.10625        0.00000
 BRILLOUIN|   770           0.00031       -0.38125        0.11875        0.00000
 BRILLOUIN|   771           0.00031       -0.38125        0.13125        0.00000
 BRILLOUIN|   772           0.00031       -0.38125        0.14375        0.00000
 BRILLOUIN|   773           0.00031       -0.38125        0.15625        0.00000
 BRILLOUIN|   774           0.00031       -0.38125        0.16875        0.00000
 BRILLOUIN|   775           0.00031       -0.38125        0.18125        0.00000
 BRILLOUIN|   776           0.00031       -0.38125        0.19375        0.00000
 BRILLOUIN|   777           0.00031       -0.38125        0.20625        0.00000
 BRILLOUIN|   778           0.00031       -0.38125        0.21875        0.00000
 BRILLOUIN|   779           0.00031       -0.38125        0.23125        0.00000
 BRILLOUIN|   780           0.00031       -0.38125        0.24375        0.00000
 BRILLOUIN|   781           0.00031       -0.38125        0.25625        0.00000
 BRILLOUIN|   782           0.00031       -0.38125        0.26875        0.00000
 BRILLOUIN|   783           0.00031       -0.38125        0.28125        0.00000
 BRILLOUIN|   784           0.00031       -0.38125        0.29375        0.00000
 BRILLOUIN|   785           0.00031       -0.38125        0.30625        0.00000
 BRILLOUIN|   786           0.00031       -0.38125        0.31875        0.00000
 BRILLOUIN|   787           0.00031       -0.38125        0.33125        0.00000
 BRILLOUIN|   788           0.00031       -0.38125        0.34375        0.00000
 BRILLOUIN|   789           0.00031       -0.38125        0.35625        0.00000
 BRILLOUIN|   790           0.00031       -0.38125        0.36875        0.00000
 BRILLOUIN|   791           0.00031       -0.38125        0.38125        0.00000
 BRILLOUIN|   792           0.00031       -0.38125        0.39375        0.00000
 BRILLOUIN|   793           0.00031       -0.38125        0.40625        0.00000
 BRILLOUIN|   794           0.00031       -0.38125        0.41875        0.00000
 BRILLOUIN|   795           0.00031       -0.38125        0.43125        0.00000
 BRILLOUIN|   796           0.00031       -0.38125        0.44375        0.00000
 BRILLOUIN|   797           0.00031       -0.38125        0.45625        0.00000
 BRILLOUIN|   798           0.00031       -0.38125        0.46875        0.00000
 BRILLOUIN|   799           0.00031       -0.38125        0.48125        0.00000
 BRILLOUIN|   800           0.00031       -0.38125        0.49375        0.00000
 BRILLOUIN|   801           0.00031       -0.36875       -0.49375        0.00000
 BRILLOUIN|   802           0.00031       -0.36875       -0.48125        0.00000
 BRILLOUIN|   803           0.00031       -0.36875       -0.46875        0.00000
 BRILLOUIN|   804           0.00031       -0.36875       -0.45625        0.00000
 BRILLOUIN|   805           0.00031       -0.36875       -0.44375        0.00000
 BRILLOUIN|   806           0.00031       -0.36875       -0.43125        0.00000
 BRILLOUIN|   807           0.00031       -0.36875       -0.41875        0.00000
 BRILLOUIN|   808           0.00031       -0.36875       -0.40625        0.00000
 BRILLOUIN|   809           0.00031       -0.36875       -0.39375        0.00000
 BRILLOUIN|   810           0.00031       -0.36875       -0.38125        0.00000
 BRILLOUIN|   811           0.00031       -0.36875       -0.36875        0.00000
 BRILLOUIN|   812           0.00031       -0.36875       -0.35625        0.00000
 BRILLOUIN|   813           0.00031       -0.36875       -0.34375        0.00000
 BRILLOUIN|   814           0.00031       -0.36875       -0.33125        0.00000
 BRILLOUIN|   815           0.00031       -0.36875       -0.31875        0.00000
 BRILLOUIN|   816           0.00031       -0.36875       -0.30625        0.00000
 BRILLOUIN|   817           0.00031       -0.36875       -0.29375        0.00000
 BRILLOUIN|   818           0.00031       -0.36875       -0.28125        0.00000
 BRILLOUIN|   819           0.00031       -0.36875       -0.26875        0.00000
 BRILLOUIN|   820           0.00031       -0.36875       -0.25625        0.00000
 BRILLOUIN|   821           0.00031       -0.36875       -0.24375        0.00000
 BRILLOUIN|   822           0.00031       -0.36875       -0.23125        0.00000
 BRILLOUIN|   823           0.00031       -0.36875       -0.21875        0.00000
 BRILLOUIN|   824           0.00031       -0.36875       -0.20625        0.00000
 BRILLOUIN|   825           0.00031       -0.36875       -0.19375        0.00000
 BRILLOUIN|   826           0.00031       -0.36875       -0.18125        0.00000
 BRILLOUIN|   827           0.00031       -0.36875       -0.16875        0.00000
 BRILLOUIN|   828           0.00031       -0.36875       -0.15625        0.00000
 BRILLOUIN|   829           0.00031       -0.36875       -0.14375        0.00000
 BRILLOUIN|   830           0.00031       -0.36875       -0.13125        0.00000
 BRILLOUIN|   831           0.00031       -0.36875       -0.11875        0.00000
 BRILLOUIN|   832           0.00031       -0.36875       -0.10625        0.00000
 BRILLOUIN|   833           0.00031       -0.36875       -0.09375        0.00000
 BRILLOUIN|   834           0.00031       -0.36875       -0.08125        0.00000
 BRILLOUIN|   835           0.00031       -0.36875       -0.06875        0.00000
 BRILLOUIN|   836           0.00031       -0.36875       -0.05625        0.00000
 BRILLOUIN|   837           0.00031       -0.36875       -0.04375        0.00000
 BRILLOUIN|   838           0.00031       -0.36875       -0.03125        0.00000
 BRILLOUIN|   839           0.00031       -0.36875       -0.01875        0.00000
 BRILLOUIN|   840           0.00031       -0.36875       -0.00625        0.00000
 BRILLOUIN|   841           0.00031       -0.36875        0.00625        0.00000
 BRILLOUIN|   842           0.00031       -0.36875        0.01875        0.00000
 BRILLOUIN|   843           0.00031       -0.36875        0.03125        0.00000
[...]
 -------------------------------------------------------------------------------
 Memory consumption                Number of allocations  Used [MiB]  Size [MiB]
 Host                                             245480       34990       43169
 -------------------------------------------------------------------------------

 -------------------------------------------------------------------------------
 -                                                                             -
 -                                GRID STATISTICS                              -
 -                                                                             -
 -------------------------------------------------------------------------------
 LP    KERNEL             BACKEND                              COUNT     PERCENT
 5     integrate general  CPU                                 121992      19.19%
 6     integrate general  CPU                                 117988      18.56%
 5     collocate general  CPU                                 117300      18.46%
 6     collocate general  CPU                                 113450      17.85%
 4     integrate general  CPU                                  84032      13.22%
 4     collocate general  CPU                                  80800      12.71%
 0     collocate general  CPU                                      6       0.00%
 0     integrate general  CPU                                      3       0.00%
 -------------------------------------------------------------------------------

 MEMORY| Estimated peak process memory [MiB]                               44820

 -------------------------------------------------------------------------------
 ----                             MULTIGRID INFO                            ----
 -------------------------------------------------------------------------------
 count for grid        1:        1619779          cutoff [a.u.]          250.00
 count for grid        2:         938706          cutoff [a.u.]           83.33
 count for grid        3:         718909          cutoff [a.u.]           27.78
 count for grid        4:         146132          cutoff [a.u.]            9.26
 total gridlevel count  :        3423526

 -------------------------------------------------------------------------------
 -                                                                             -
 -                         MESSAGE PASSING PERFORMANCE                         -
 -                                                                             -
 -------------------------------------------------------------------------------

 ROUTINE             CALLS      AVE VOLUME [Bytes]
 MP_Group         23346697
 MP_Bcast         19378966                    152.
 MP_Allreduce     42580379                  33240.
 MP_Sync          41765618
 MP_Alltoall      18536886                   1087.
 MP_SendRecv         32258                  14600.
 MP_ISendRecv        33147                  14400.
 MP_Wait           8734699
 MP_comm_split    13733658
 MP_ISend        169930200                  10186.
 MP_IRecv         17379086                   4993.
 -------------------------------------------------------------------------------


 -------------------------------------------------------------------------------
 -                                                                             -
 -                           R E F E R E N C E S                               -
 -                                                                             -
 -------------------------------------------------------------------------------
 
 CP2K version 2025.2 (Development Version), the CP2K developers group (2025).
 CP2K is freely available from https://www.cp2k.org/ .
 
 M. Graml, K. Zollner, D. Hernangmez-Prez, P. E. Faria Junior, J. Wilhelm.
 J. Chem. Theory Comput. 20, 2202-2208 (2024).
 Low-scaling GW algorithm applied to twisted transition-metal dichalcogenide 
 heterobilayers.
 https://doi.org/10.1021/acs.jctc.3c01230

 T. D. Kuehne, M. Iannuzzi, M. Del Ben, V. V. Rybkin, P. Seewald, F. Stein, T. 
 Laino, R. Z. Khaliullin, O. Schuett, F. Schiffmann, D. Golze, J. Wilhelm, S. 
 Chulkov, M. H. Bani-Hashemian, V. Weber, U. Borstnik, M. Taillefumier, A. S. 
 Jakobovits, A. Lazzaro, H. Pabst, T. Mueller, R. Schade, M. Guidon, S. 
 Andermatt, N. Holmberg, G. K. Schenter, A. Hehn, A. Bussy, F. Belleflamme, G. 
 Tabacchi, A. Gloess, M. Lass, I. Bethune, C. J. Mundy, C. Plessl, M. Watkins, 
 J. VandeVondele, M. Krack, J. Hutter.
 J. Chem. Phys. 152, 194103 (2020).
 CP2K: An electronic structure and molecular dynamics software package - 
 Quickstep: Efficient and accurate electronic structure calculations.
 https://doi.org/10.1063/5.0007045

 A. Togo, I. Tanaka.
 arXiv, 1808.01590 (2018).
 Spglib : a software library for crystal symmetry search.

 O. Schuett, P. Messmer, J. Hutter, J. VandeVondele.
 Electronic Structure Calculations on Graphics Processing Units, 173-190 (2016).
 GPU-Accelerated Sparse Matrix-Matrix Multiplication for Linear Scaling Density 
 Functional Theory.
 https://doi.org/10.1002/9781118670712.ch8

 A. Heinecke, G. Henry, M. Hutchinson, H. Pabst.
 Proceedings of Intl. Supercomputing Conference, 981-991 (2016).
 LIBXSMM: Accelerating Small Matrix Multiplications by Runtime Code Generation.
 https://doi.org/10.1109/SC.2016.83

 J. Hutter, M. Iannuzzi, F. Schiffmann, J. VandeVondele.
 WIREs Comput Mol Sci. 4, 15-25 (2014).
 CP2K: atomistic simulations of condensed matter systems.
 https://doi.org/10.1002/wcms.1159

 U. Borstnik, J. VandeVondele, V. Weber, J. Hutter.
 Parallel Comput. 40, 47-58 (2014).
 Sparse matrix multiplication: The distributed block-compressed sparse row 
 library.
 https://doi.org/10.1016/j.parco.2014.03.012

 A. Marek, V. Blum, R. Johanni, V. Havu, B. Lang, T. Auckenthaler, A. Heinecke, 
 H. Bungartz, H. Lederer.
 J. Phys. Condens. Matter 26, 213201 (2014).
 The ELPA library: scalable parallel eigenvalue solutions for electronic 
 structure theory and computational science.
 https://doi.org/10.1088/0953-8984/26/21/213201

 J. VandeVondele, J. Hutter.
 J. Chem. Phys. 127, 114105 (2007).
 Gaussian basis sets for accurate calculations on molecular systems in gas and 
 condensed phases.
 https://doi.org/10.1063/1.2770708

 M. Krack.
 Theor. Chem. Acc. 114, 145-152 (2005).
 Pseudopotentials for H to Kr optimized for gradient-corrected 
 exchange-correlation functionals.
 https://doi.org/10.1007/s00214-005-0655-y

 M. Frigo, S. G. Johnson.
 Proc. IEEE 93, 216-231 (2005).
 The design and implementation of FFTW3.
 https://doi.org/10.1109/JPROC.2004.840301

 M. Krack, M. Parrinello.
 Phys. Chem. Chem. Phys. 2, 2105-2112 (2000).
 All-electron ab-initio molecular dynamics.
 https://doi.org/10.1039/b001167n

 G. Lippert, J. Hutter, M. Parrinello.
 Theor. Chem. Acc. 103, 124-140 (1999).
 The Gaussian and augmented-plane-wave density functional method for ab initio 
 molecular dynamics simulations.
 https://doi.org/10.1007/s002140050523

 C. Hartwigsen, S. Goedecker, J. Hutter.
 Phys. Rev. B 58, 3641-3662 (1998).
 Relativistic separable dual-space Gaussian pseudopotentials from H to Rn.
 https://doi.org/10.1103/PhysRevB.58.3641

 S. Goedecker, M. Teter, J. Hutter.
 Phys. Rev. B 54, 1703-1710 (1996).
 Separable dual-space Gaussian pseudopotentials.
 https://doi.org/10.1103/PhysRevB.54.1703

 J. P. Perdew, K. Burke, M. Ernzerhof.
 Phys. Rev. Lett. 77, 3865-3868 (1996).
 Generalized gradient approximation made simple.
 https://doi.org/10.1103/PhysRevLett.77.3865


 -------------------------------------------------------------------------------
 -                                                                             -
 -                                T I M I N G                                  -
 -                                                                             -
 -------------------------------------------------------------------------------
 SUBROUTINE                       CALLS  ASD         SELF TIME        TOTAL TIME
                                MAXIMUM       AVERAGE  MAXIMUM  AVERAGE  MAXIMUM
 CP2K                                 1  1.0      0.1      0.3 505743.1 505749.3
 qs_energies                          1  2.0      0.0      0.0 505674.0 505680.3
 qs_energies_properties               1  3.0      0.0      0.0 504905.9 504912.1
 post_scf_bandstructure               1  4.0      0.0      0.0 504905.9 504912.1
 gw                                   1  5.0      0.0      0.0 504556.0 504562.2
 gw_calc_small_cell_full_kp           1  6.0      0.0      0.1 504038.8 504045.1
 compute_W_real_space                 1  7.0     36.2     76.1 468994.0 468999.8
 mp_sum_dm3                        1044  9.0 304989.1 304998.0 304989.1 304998.0
 fm_to_local_array                  934  8.1    212.2    313.0 304706.1 304712.0
 compute_Minv_and_Vsqrt               1  8.0      0.4      0.4 153965.9 153968.3
 build_2c_coulomb_matrix_kp_sma       2  9.0    104.0    208.2 153606.7 153608.6
 build_2c_coulomb_matrix_kp_sma 4096000 10.0 147750.9 150331.5 147750.9 150331.5
 compute_chi                          1  7.0      0.1      0.2  25439.9  25440.2
 dbt_total                      *******  9.6     17.3     18.5  21314.9  24435.6
 dbt_contract                   3859957 10.4     33.2     35.7  20189.5  23364.1
 dbt_tas_multiply               4762980 12.9      4.6      5.0  19820.9  23022.7
 dbt_tas_total                  4762980 13.9    173.5    182.2  19818.0  23019.9
 G_times_3c                       22322  8.0     40.6     44.4  12381.1  14563.0
 dbt_tas_estimate_result_nze    2381490 13.4    364.2    380.2  11658.1  14541.6
 mp_sync                        ******* 12.2   9010.5  14257.4   9010.5  14257.4
 get_V_tr_R                          34  9.0      0.7      2.0  11782.1  11783.5
 mult_W_with_Minv                    30  8.0      3.0      3.1  11657.8  11657.9
 contract_M_occ_vir_to_chi          110  8.0     86.5     97.7   5474.9   7377.6
 convert_to_new_pgrid           ******* 14.9     29.1     32.8   6102.4   7135.8
 dbm_copy                       9525960 15.9   6073.3   7106.5   6073.3   7106.5
 compute_Sigma_c                      1  7.0      0.0      0.0   6530.0   6538.2
 add_rs_to_ikp                  ******* ****   5914.4   6063.7   5914.4   6063.7
 dbt_tas_dbm                    4762980 14.9      4.1      4.5   5361.0   5749.5
 dbm_multiply                   4762980 16.9   5352.0   5740.4   5352.0   5740.4
 add_ikp_to_rs                  *******  0.3   4978.9   5702.0   4978.9   5702.0
 dbm_reserve_blocks             ******* 16.5   4172.1   5654.3   4172.1   5654.3
 trafo_rs_to_ikp                  67100  8.1    155.9    180.7   5488.9   5603.5
 add_ikp_to_all_rs                61550  8.0    139.6    155.8   4317.5   5099.1
 G_occ_vir                          121  8.0      1.9      2.0   4680.8   4813.9
 dbt_tas_reserve_blocks_index   ******* 15.6     13.3     14.3   2835.5   4091.0
 dbt_tas_mm_1N                  1262506 15.5      0.8      0.9   2970.1   3267.9
 fm_to_local_tensor              948632  9.0      8.3      8.8   2743.1   3187.3
 dbm_add                        4762980 14.9   2573.0   2988.6   2573.0   2988.6
 dbcsr_complete_redistribute    2749401  9.8     43.7     67.0   2239.3   2850.5
 dbt_tas_reserve_blocks_templat 7653430 14.0     13.1     14.3   1764.4   2637.8
 mp_alltoall_i22                4942135 10.3   1896.1   2572.0   1896.1   2572.0
 fm_add_ikp_to_rs                774400  9.0   1434.9   1485.4   2236.1   2350.2
 contract_to_Sigma                  200  8.0     77.2     82.3   2120.3   2291.7
 copy_fm_to_dbcsr               1262443  9.5      2.6      2.8   1550.5   2188.9
 global_matrix_to_local_matrix   948632 10.0      9.3     15.5    945.4   1969.8
 dbt_tas_mm_2                   1460962 16.0      1.4      1.7   1506.8   1957.1
 contract_W                         104  8.0     21.7     23.5   1717.0   1932.5
 mp_sum_dm                      4096048 10.0   1717.2   1923.8   1717.2   1923.8
 compute_QP_energies                  1  7.0      0.3      0.3   1798.3   1803.1
 trafo_to_k_and_nn               399428  8.0      1.5      1.7   1797.3   1802.0
 dbt_tas_reshape                5672076 15.5     26.4     27.6   1300.2   1735.7
 reshape_mm_small               4762980 14.9    278.6    299.6   1295.2   1644.8
 dbt_copy                       6689400 10.9     27.2     29.8   1283.3   1563.8
 send_data                       948632 11.0      0.6      0.7    666.2   1554.7
 communicate_buffer              948632 12.0      6.5     56.9    665.6   1554.0
 dbt_tas_reshape_buffer_obtain  5672076 16.5     80.0     90.1   1056.4   1495.9
 fm_trafo_rs_to_ikp              399428  9.0    755.5    775.5   1336.9   1438.1
 mp_waitall_1                   7598837 11.4    659.1   1388.8    659.1   1388.8
 dbt_tas_replicate              4762980 14.9     77.8     82.4   1243.2   1374.8
 contract_to_Sigma_3c_x_G        942207  9.0      1.3      1.4   1213.3   1357.1
 add_V_L                        2048000 10.0     41.0   1322.2     41.0   1322.2
 compute_Sigma_x                      1  7.0      0.0      0.0   1276.6   1292.9
 dbt_reshape                    4418002 11.8    645.2    831.4    827.0   1095.7
 parallel_gemm_cfm              1651832  8.9      1.0      1.2    760.7   1055.6
 parallel_gemm_cfm_cosma        1651832  9.9    759.6   1054.6    759.6   1054.6
 copy_dbcsr_to_fm               1486958  8.2      7.4      8.0    990.6   1016.4
 dbt_destroy                    ******* 10.7    880.7    967.6    886.8    973.8
 dbt_tas_mm_3T                  2257358 16.1      1.4      1.6    879.0    954.1
 destroy_t_1d                        98  8.0      1.2      1.3    818.1    875.2
 contract_to_Sigma_contract       20134  9.0     37.0     44.9    785.9    870.4
 scf_env_do_scf                       1  3.0      0.0      0.0    767.9    767.9
 scf_env_do_scf_inner_loop           49  4.0      0.0      0.0    767.9    767.9
 qs_scf_new_mos_kp                   49  5.0      0.0      0.0    756.7    756.7
 do_general_diag_kp                  49  6.0      1.4      1.5    756.7    756.7
 get_t_3c_int                   3087628  9.3      8.5      9.2    564.8    752.7
 get_Minv_Vtr_Minv_R                  1  8.0      0.1      0.1    730.8    730.9
 local_dbt_to_global_fm              91  8.0      0.9      1.0    567.3    567.3
 mp_sum_dv                       438868  8.9    117.9    559.2    117.9    559.2
 create_and_init_bs_env_for_gw        1  6.0      0.0      0.0    517.1    517.2
 fm_MWM_R_t_to_local_tensor_W_R      30  8.0      0.1      0.2    502.5    502.5
 dbt_tas_merge                  1460962 15.0     23.2     28.1    278.2    494.3
 dbcsr_desymmetrize_deep        2192734  8.6     17.1     19.5    439.9    473.9
 mp_cart_sub                    2973995 10.2    459.2    459.8    459.2    459.8
 dbt_tas_copy                   3037702 12.2    101.3    128.2    318.0    376.6
 power                           127550  8.0     23.9     25.8    363.2    368.2
 diag_complex                    127550  9.0    339.3    343.9    339.3    343.9
 heuristic_RI_regularization          1  7.0      0.0      0.0    325.7    325.7
 dbt_remap                       467635 11.0     43.2     49.3    263.0    319.9
 dbt_tas_create_split           ******* 15.8      8.6      9.3    303.5    317.0
 dbt_tas_create_split_rows_or_c ******* 16.8     30.9     32.6    295.0    308.2
 reshape_mm_compatible          4762980 14.9     38.9     40.7    267.6    279.0
 mp_cart_create                 ******* 16.0    237.5    245.2    254.1    262.0
 dbt_tas_distribution_new       ******* 15.3    119.3    124.7    235.3    245.2
 add_R                          ******* -1.3    157.4    169.0    221.4    237.3
 local_dbt_to_global_mat         567931  9.0      1.9      2.1    139.2    227.2
 dos_pdos_ldos                        1  5.0      0.0      0.0    221.5    221.5
 get_data                        948632 11.0     18.9    209.0     20.2    210.5
 cp_cfm_heevd                     27417  7.5      0.0      0.0    207.8    208.4
 cp_cfm_heevd_base                27417  8.5    207.8    208.4    207.8    208.4
 SOC_ev                           13096  6.0      0.1      0.2    202.8    203.0
 mp_sum_i                       4802522 15.2    194.7    198.9    194.7    198.9
 send_sizes_1                    948632 11.0      0.5      0.6    194.2    198.3
 dbt_tas_reshape_buffer_fill    5672076 16.5    172.1    197.2    172.1    197.2
 change_split                   6235374 15.4     12.9     13.7    177.4    186.0
 local_matrix_to_global_matrix   567931 10.0      1.0      1.1     81.0    169.4
 dbt_reserve_blocks_index       5697917 13.4      6.1      6.8    115.0    168.8
 dbt_reserve_blocks_index_array 4719639 12.8      4.4      4.9    101.2    156.3
 compute_3c_integrals                 1  7.0      0.0      0.1    154.1    154.1
 build_3c_integrals                   1  8.0    140.4    148.8    145.5    153.8
 kpoint_density_transform            49  7.0      0.4      0.5    142.1    142.1
 dbt_copy_nocomm                 426045 11.0     73.1     98.6     91.5    135.4
 dbt_communicate_buffer         4418002 12.8     94.9    131.2     94.9    131.2
 is_cell_in_index_to_cell       ******* -1.4    122.1    130.1    122.1    130.1
 dbcsr_finalize                 ******* 11.2     21.3     26.5     96.3    125.1
 cp_fm_start_copy_general        940800  7.3      3.8      7.1    113.9    118.5
 rskp_transform                  352888  7.1      2.3    114.1      2.3    114.1
 mp_comm_dup                    ******* 18.2     94.4     99.9    102.5    108.2
 dbt_create_matrix               948632 10.0      5.3      5.6     94.1     98.7
 mp_isend_dv                    ******* 12.2      6.3     95.8      6.3     95.8
 mp_allgather_i                 1881600  8.3     85.9     94.9     85.9     94.9
 comm_data                       567931 11.0      0.8      1.9     27.7     92.3
 create_and_init_bs_env               1  5.0      0.0      0.0     92.3     92.3
 compute_cfm_mo_coeff_kp_and_ei       1  6.0      0.0      0.0     92.3     92.3
 mp_waitall_2                   1135862 12.0     24.7     89.2     24.7     89.2
 dbt_distribution_new_expert    2832544 11.8     14.5     15.9     84.5     88.8
 mp_comm_free                   ******* 14.9     73.8     77.9     73.8     77.9
 dbcsr_filter_anytype           4205346 11.0      9.8     10.5     48.8     77.1
 mp_alltoall_d11v               ******* 10.7     20.6     76.9     20.6     76.9
 rsmat_to_kp                      39288  7.2      0.3      0.3     72.6     73.2
 mp_comm_split_direct           ******* 17.8     64.8     68.7     68.6     72.7
 bs_env_release                       1  2.0      0.1      0.2     39.6     68.3
 cp_cfm_geeig_canon                6548  7.0      0.0      0.0     65.5     65.7
 dbt_permute_index              ******* 12.1     48.6     54.5     54.7     61.2
 dbcsr_merge_all                4321177 11.9     35.9     44.2     46.3     59.7
 mp_alltoall_i                  ******* 15.1     56.8     58.5     56.8     58.5
 dbt_tas_create_new             ******* 15.1     51.0     55.6     51.0     55.6
 transform_dmat                  156800  8.0      1.0     53.5      1.0     53.5
 -------------------------------------------------------------------------------

 The number of warnings for this run is : 1
 
 -------------------------------------------------------------------------------
  **** **** ******  **  PROGRAM ENDED AT                 2025-09-28 13:16:16.643
 ***** ** ***  *** **   PROGRAM RAN ON                                 n2lcn0103
 **    ****   ******    PROGRAM RAN BY                                  metdyn02
 ***** **    ** ** **   PROGRAM PROCESS ID                               2695405
  **** **  *******  **  PROGRAM STOPPED IN /scratch/hpc-prf-metdyn/metdyn02_Remi
                                           /05_TMD_new/paperbenchmarksMoS2/kpoin
                                           ts/80
