 DBCSR| CPU Multiplication driver                                           XSMM (U)
 DBCSR| Multrec recursion limit                                              512 (U)
 DBCSR| Multiplication stack size                                           1000 (D)
 DBCSR| Maximum elements for images                                    UNLIMITED (U)
 DBCSR| Multiplicative factor virtual images                                   1 (U)
 DBCSR| Use multiplication densification                                       T (D)
 DBCSR| Multiplication size stacks                                             3 (U)
 DBCSR| Use memory pool for CPU allocation                                     F (U)
 DBCSR| Number of 3D layers                                               SINGLE (U)
 DBCSR| Use MPI memory allocation                                              F (U)
 DBCSR| Use RMA algorithm                                                      F (U)
 DBCSR| Use Communication thread                                               T (U)
 DBCSR| Communication thread load                                             60 (D)
 DBCSR| MPI: My process id                                                     0
 DBCSR| MPI: Number of processes                                             384
 DBCSR| OMP: Current number of threads                                         8
 DBCSR| OMP: Max number of threads                                             8
 DBCSR| Split modifier for TAS multiplication algorithm                  1.0E+00 (U)


  **** **** ******  **  PROGRAM STARTED AT               2024-10-14 20:30:42.630
 ***** ** ***  *** **   PROGRAM STARTED ON                             n2lcn0101
 **    ****   ******    PROGRAM STARTED BY                              metdyn02
 ***** **    ** ** **   PROGRAM PROCESS ID                               2892357
  **** **  *******  **  PROGRAM STARTED IN /scratch/hpc-prf-metdyn/metdyn02_Remi
                                           /03_TMD/01_MoS2/01

 CP2K| version string:                 CP2K version 2024.2 (Development Version)
 CP2K| source code revision number:                                  git:7adf92c
 CP2K| cp2kflags: omp libint fftw3 libxc libgrpp elpa parallel scalapack mpi_f08
 CP2K|             cosma deepmd xsmm plumed2 spglib sirius libvori libbqb libvdw
 CP2K|            wxc hdf5
 CP2K| is freely available from                            https://www.cp2k.org/
 CP2K| Program compiled at                         Mon Sep 16 11:38:02 CEST 2024
 CP2K| Program compiled on                                              n2login2
 CP2K| Program compiled for                                                local
 CP2K| Data directory path    /opt/software/pc2/EB-SW/software/CP2K/2024.1-foss-
 CP2K| Input file name                                                    GW.inp

 GLOBAL| Force Environment number                                              1
 GLOBAL| Basis set file name            /pc2/groups/hpc-prf-metdyn/metdyn02_Remi
 GLOBAL| Potential file name            /pc2/groups/hpc-prf-metdyn/metdyn02_Remi
 GLOBAL| MM Potential file name                                     MM_POTENTIAL
 GLOBAL| Coordinate file name                                      __STD_INPUT__
 GLOBAL| Method name                                                        CP2K
 GLOBAL| Project name                                                       MoS2
 GLOBAL| Run type                                                         ENERGY
 GLOBAL| FFT library                                                       FFTW3
 GLOBAL| Diagonalization library                                            ELPA
 GLOBAL| DGEMM library                                                      BLAS
 GLOBAL| Minimum number of eigenvectors for ELPA usage                        16
 GLOBAL| Orthonormality check for eigenvectors                          DISABLED
 GLOBAL| Matrix multiplication library                                     COSMA
 GLOBAL| All-to-all communication in single precision                          F
 GLOBAL| FFTs using library dependent lengths                                  F
 GLOBAL| Grid backend                                                       AUTO
 GLOBAL| Global print level                                               MEDIUM
 GLOBAL| MPI I/O enabled                                                       T
 GLOBAL| Total number of message passing processes                           384
 GLOBAL| Number of threads for this process                                    8
 GLOBAL| This output is from process                                           0
 GLOBAL| Stack size for threads created by OpenMP (OMP_STACKSIZE)        default
 GLOBAL| CPU model name                          AMD EPYC 7763 64-Core Processor
 GLOBAL| CPUID                                                              1002

 MEMORY| system memory details [Kb]
 MEMORY|                        rank 0           min           max       average
 MEMORY| MemTotal           1056622248    1056622244    1056622248    1056622246
 MEMORY| MemFree            1036744172    1033972872    1041492236    1039054404
 MEMORY| Buffers                337564        226836        340776        287276
 MEMORY| Cached                9585708       6569512      12135468       7507660
 MEMORY| Slab                  3201052       1940192       3780360       3098271
 MEMORY| SReclaimable          1227552        603984       1537432       1187324
 MEMORY| MemLikelyFree      1047894996    1047592360    1049024060    1048036665


 *** Fundamental physical constants (SI units) ***

 *** Literature: B. J. Mohr and B. N. Taylor,
 ***             CODATA recommended values of the fundamental physical
 ***             constants: 2006, Web Version 5.1
 ***             http://physics.nist.gov/constants

 Speed of light in vacuum [m/s]                             2.99792458000000E+08
 Magnetic constant or permeability of vacuum [N/A**2]       1.25663706143592E-06
 Electric constant or permittivity of vacuum [F/m]          8.85418781762039E-12
 Planck constant (h) [J*s]                                  6.62606896000000E-34
 Planck constant (h-bar) [J*s]                              1.05457162825177E-34
 Elementary charge [C]                                      1.60217648700000E-19
 Electron mass [kg]                                         9.10938215000000E-31
 Electron g factor [ ]                                     -2.00231930436220E+00
 Proton mass [kg]                                           1.67262163700000E-27
 Fine-structure constant                                    7.29735253760000E-03
 Rydberg constant [1/m]                                     1.09737315685270E+07
 Avogadro constant [1/mol]                                  6.02214179000000E+23
 Boltzmann constant [J/K]                                   1.38065040000000E-23
 Atomic mass unit [kg]                                      1.66053878200000E-27
 Bohr radius [m]                                            5.29177208590000E-11

 *** Conversion factors ***

 [u] -> [a.u.]                                              1.82288848426455E+03
 [Angstrom] -> [Bohr] = [a.u.]                              1.88972613288564E+00
 [a.u.] = [Bohr] -> [Angstrom]                              5.29177208590000E-01
 [a.u.] -> [s]                                              2.41888432650478E-17
 [a.u.] -> [fs]                                             2.41888432650478E-02
 [a.u.] -> [J]                                              4.35974393937059E-18
 [a.u.] -> [N]                                              8.23872205491840E-08
 [a.u.] -> [K]                                              3.15774647902944E+05
 [a.u.] -> [kJ/mol]                                         2.62549961709828E+03
 [a.u.] -> [kcal/mol]                                       6.27509468713739E+02
 [a.u.] -> [Pa]                                             2.94210107994716E+13
 [a.u.] -> [bar]                                            2.94210107994716E+08
 [a.u.] -> [atm]                                            2.90362800883016E+08
 [a.u.] -> [eV]                                             2.72113838565563E+01
 [a.u.] -> [Hz]                                             6.57968392072181E+15
 [a.u.] -> [1/cm] (wave numbers)                            2.19474631370540E+05
 [a.u./Bohr**2] -> [1/cm]                                   5.14048714338585E+03
 

 CELL_TOP| Volume [angstrom^3]:                                       131.694613
 CELL_TOP| Vector a [angstrom     3.184     0.000     0.000   |a| =     3.184000
 CELL_TOP| Vector b [angstrom    -1.592     2.757     0.000   |b| =     3.184000
 CELL_TOP| Vector c [angstrom     0.000     0.000    15.000   |c| =    15.000000
 CELL_TOP| Angle (b,c), alpha [degree]:                                90.000000
 CELL_TOP| Angle (a,c), beta  [degree]:                                90.000000
 CELL_TOP| Angle (a,b), gamma [degree]:                               120.000000
 CELL_TOP| Numerically orthorhombic:                                          NO
 CELL_TOP| Periodicity                                                        XY

 GENERATE|  Preliminary Number of Bonds generated:                             0
 GENERATE|  Achieved consistency in connectivity generation.

 CELL| Volume [angstrom^3]:                                           131.694613
 CELL| Vector a [angstrom]:       3.184     0.000     0.000   |a| =     3.184000
 CELL| Vector b [angstrom]:      -1.592     2.757     0.000   |b| =     3.184000
 CELL| Vector c [angstrom]:       0.000     0.000    15.000   |c| =    15.000000
 CELL| Angle (b,c), alpha [degree]:                                    90.000000
 CELL| Angle (a,c), beta  [degree]:                                    90.000000
 CELL| Angle (a,b), gamma [degree]:                                   120.000000
 CELL| Numerically orthorhombic:                                              NO
 CELL| Periodicity                                                            XY

 CELL_REF| Volume [angstrom^3]:                                       131.694613
 CELL_REF| Vector a [angstrom     3.184     0.000     0.000   |a| =     3.184000
 CELL_REF| Vector b [angstrom    -1.592     2.757     0.000   |b| =     3.184000
 CELL_REF| Vector c [angstrom     0.000     0.000    15.000   |c| =    15.000000
 CELL_REF| Angle (b,c), alpha [degree]:                                90.000000
 CELL_REF| Angle (a,c), beta  [degree]:                                90.000000
 CELL_REF| Angle (a,b), gamma [degree]:                               120.000000
 CELL_REF| Numerically orthorhombic:                                          NO
 CELL_REF| Periodicity                                                        XY

 *******************************************************************************
                                    Kpoints
 *******************************************************************************
 BRILLOUIN| K-point scheme                                        Monkhorst-Pack
 BRILLOUIN| K-Point grid                                            36   36    1
 BRILLOUIN| Accuracy in Symmetry determination                      0.100000E-05
 BRILLOUIN| K-Point point group symmetrization                               OFF
 BRILLOUIN| Wavefunction type                                            COMPLEX
 BRILLOUIN| List of Kpoints [2 Pi/Bohr]                                      648
 BRILLOUIN| Number           Weight            X              Y              Z
 BRILLOUIN|     1           0.00154       -0.48611       -0.48611        0.00000
 BRILLOUIN|     2           0.00154       -0.48611       -0.45833        0.00000
 BRILLOUIN|     3           0.00154       -0.48611       -0.43056        0.00000
 BRILLOUIN|     4           0.00154       -0.48611       -0.40278        0.00000
 BRILLOUIN|     5           0.00154       -0.48611       -0.37500        0.00000
 BRILLOUIN|     6           0.00154       -0.48611       -0.34722        0.00000
 BRILLOUIN|     7           0.00154       -0.48611       -0.31944        0.00000
 BRILLOUIN|     8           0.00154       -0.48611       -0.29167        0.00000
 BRILLOUIN|     9           0.00154       -0.48611       -0.26389        0.00000
 BRILLOUIN|    10           0.00154       -0.48611       -0.23611        0.00000
 BRILLOUIN|    11           0.00154       -0.48611       -0.20833        0.00000
 BRILLOUIN|    12           0.00154       -0.48611       -0.18056        0.00000
 BRILLOUIN|    13           0.00154       -0.48611       -0.15278        0.00000
 BRILLOUIN|    14           0.00154       -0.48611       -0.12500        0.00000
 BRILLOUIN|    15           0.00154       -0.48611       -0.09722        0.00000
 BRILLOUIN|    16           0.00154       -0.48611       -0.06944        0.00000
 BRILLOUIN|    17           0.00154       -0.48611       -0.04167        0.00000
 BRILLOUIN|    18           0.00154       -0.48611       -0.01389        0.00000
 BRILLOUIN|    19           0.00154       -0.48611        0.01389        0.00000
 BRILLOUIN|    20           0.00154       -0.48611        0.04167        0.00000
 BRILLOUIN|    21           0.00154       -0.48611        0.06944        0.00000
 BRILLOUIN|    22           0.00154       -0.48611        0.09722        0.00000
 BRILLOUIN|    23           0.00154       -0.48611        0.12500        0.00000
 BRILLOUIN|    24           0.00154       -0.48611        0.15278        0.00000
 BRILLOUIN|    25           0.00154       -0.48611        0.18056        0.00000
 BRILLOUIN|    26           0.00154       -0.48611        0.20833        0.00000
 BRILLOUIN|    27           0.00154       -0.48611        0.23611        0.00000
 BRILLOUIN|    28           0.00154       -0.48611        0.26389        0.00000
 BRILLOUIN|    29           0.00154       -0.48611        0.29167        0.00000
 BRILLOUIN|    30           0.00154       -0.48611        0.31944        0.00000
 BRILLOUIN|    31           0.00154       -0.48611        0.34722        0.00000
 BRILLOUIN|    32           0.00154       -0.48611        0.37500        0.00000
 BRILLOUIN|    33           0.00154       -0.48611        0.40278        0.00000
 BRILLOUIN|    34           0.00154       -0.48611        0.43056        0.00000
 BRILLOUIN|    35           0.00154       -0.48611        0.45833        0.00000
 BRILLOUIN|    36           0.00154       -0.48611        0.48611        0.00000
 BRILLOUIN|    37           0.00154       -0.45833       -0.48611        0.00000
 BRILLOUIN|    38           0.00154       -0.45833       -0.45833        0.00000
 BRILLOUIN|    39           0.00154       -0.45833       -0.43056        0.00000
 BRILLOUIN|    40           0.00154       -0.45833       -0.40278        0.00000
 BRILLOUIN|    41           0.00154       -0.45833       -0.37500        0.00000
 BRILLOUIN|    42           0.00154       -0.45833       -0.34722        0.00000
 BRILLOUIN|    43           0.00154       -0.45833       -0.31944        0.00000
 BRILLOUIN|    44           0.00154       -0.45833       -0.29167        0.00000
 BRILLOUIN|    45           0.00154       -0.45833       -0.26389        0.00000
 BRILLOUIN|    46           0.00154       -0.45833       -0.23611        0.00000
 BRILLOUIN|    47           0.00154       -0.45833       -0.20833        0.00000
 BRILLOUIN|    48           0.00154       -0.45833       -0.18056        0.00000
 BRILLOUIN|    49           0.00154       -0.45833       -0.15278        0.00000
 BRILLOUIN|    50           0.00154       -0.45833       -0.12500        0.00000
 BRILLOUIN|    51           0.00154       -0.45833       -0.09722        0.00000
 BRILLOUIN|    52           0.00154       -0.45833       -0.06944        0.00000
 BRILLOUIN|    53           0.00154       -0.45833       -0.04167        0.00000
 BRILLOUIN|    54           0.00154       -0.45833       -0.01389        0.00000
 BRILLOUIN|    55           0.00154       -0.45833        0.01389        0.00000
 BRILLOUIN|    56           0.00154       -0.45833        0.04167        0.00000
 BRILLOUIN|    57           0.00154       -0.45833        0.06944        0.00000
 BRILLOUIN|    58           0.00154       -0.45833        0.09722        0.00000
 BRILLOUIN|    59           0.00154       -0.45833        0.12500        0.00000
 BRILLOUIN|    60           0.00154       -0.45833        0.15278        0.00000
 BRILLOUIN|    61           0.00154       -0.45833        0.18056        0.00000
 BRILLOUIN|    62           0.00154       -0.45833        0.20833        0.00000
 BRILLOUIN|    63           0.00154       -0.45833        0.23611        0.00000
 BRILLOUIN|    64           0.00154       -0.45833        0.26389        0.00000
 BRILLOUIN|    65           0.00154       -0.45833        0.29167        0.00000
 BRILLOUIN|    66           0.00154       -0.45833        0.31944        0.00000
 BRILLOUIN|    67           0.00154       -0.45833        0.34722        0.00000
 BRILLOUIN|    68           0.00154       -0.45833        0.37500        0.00000
 BRILLOUIN|    69           0.00154       -0.45833        0.40278        0.00000
 BRILLOUIN|    70           0.00154       -0.45833        0.43056        0.00000
 BRILLOUIN|    71           0.00154       -0.45833        0.45833        0.00000
 BRILLOUIN|    72           0.00154       -0.45833        0.48611        0.00000
 BRILLOUIN|    73           0.00154       -0.43056       -0.48611        0.00000
 BRILLOUIN|    74           0.00154       -0.43056       -0.45833        0.00000
 BRILLOUIN|    75           0.00154       -0.43056       -0.43056        0.00000
 BRILLOUIN|    76           0.00154       -0.43056       -0.40278        0.00000
 BRILLOUIN|    77           0.00154       -0.43056       -0.37500        0.00000
 BRILLOUIN|    78           0.00154       -0.43056       -0.34722        0.00000
 BRILLOUIN|    79           0.00154       -0.43056       -0.31944        0.00000
 BRILLOUIN|    80           0.00154       -0.43056       -0.29167        0.00000
 BRILLOUIN|    81           0.00154       -0.43056       -0.26389        0.00000
 BRILLOUIN|    82           0.00154       -0.43056       -0.23611        0.00000
 BRILLOUIN|    83           0.00154       -0.43056       -0.20833        0.00000
 BRILLOUIN|    84           0.00154       -0.43056       -0.18056        0.00000
 BRILLOUIN|    85           0.00154       -0.43056       -0.15278        0.00000
 BRILLOUIN|    86           0.00154       -0.43056       -0.12500        0.00000
 BRILLOUIN|    87           0.00154       -0.43056       -0.09722        0.00000
 BRILLOUIN|    88           0.00154       -0.43056       -0.06944        0.00000
 BRILLOUIN|    89           0.00154       -0.43056       -0.04167        0.00000
 BRILLOUIN|    90           0.00154       -0.43056       -0.01389        0.00000
 BRILLOUIN|    91           0.00154       -0.43056        0.01389        0.00000
 BRILLOUIN|    92           0.00154       -0.43056        0.04167        0.00000
 BRILLOUIN|    93           0.00154       -0.43056        0.06944        0.00000
 BRILLOUIN|    94           0.00154       -0.43056        0.09722        0.00000
 BRILLOUIN|    95           0.00154       -0.43056        0.12500        0.00000
 BRILLOUIN|    96           0.00154       -0.43056        0.15278        0.00000
 BRILLOUIN|    97           0.00154       -0.43056        0.18056        0.00000
 BRILLOUIN|    98           0.00154       -0.43056        0.20833        0.00000
 BRILLOUIN|    99           0.00154       -0.43056        0.23611        0.00000
 BRILLOUIN|   100           0.00154       -0.43056        0.26389        0.00000
 BRILLOUIN|   101           0.00154       -0.43056        0.29167        0.00000
 BRILLOUIN|   102           0.00154       -0.43056        0.31944        0.00000
 BRILLOUIN|   103           0.00154       -0.43056        0.34722        0.00000
 BRILLOUIN|   104           0.00154       -0.43056        0.37500        0.00000
 BRILLOUIN|   105           0.00154       -0.43056        0.40278        0.00000
 BRILLOUIN|   106           0.00154       -0.43056        0.43056        0.00000
 BRILLOUIN|   107           0.00154       -0.43056        0.45833        0.00000
 BRILLOUIN|   108           0.00154       -0.43056        0.48611        0.00000
 BRILLOUIN|   109           0.00154       -0.40278       -0.48611        0.00000
 BRILLOUIN|   110           0.00154       -0.40278       -0.45833        0.00000
 BRILLOUIN|   111           0.00154       -0.40278       -0.43056        0.00000
 BRILLOUIN|   112           0.00154       -0.40278       -0.40278        0.00000
 BRILLOUIN|   113           0.00154       -0.40278       -0.37500        0.00000
 BRILLOUIN|   114           0.00154       -0.40278       -0.34722        0.00000
 BRILLOUIN|   115           0.00154       -0.40278       -0.31944        0.00000
 BRILLOUIN|   116           0.00154       -0.40278       -0.29167        0.00000
 BRILLOUIN|   117           0.00154       -0.40278       -0.26389        0.00000
 BRILLOUIN|   118           0.00154       -0.40278       -0.23611        0.00000
 BRILLOUIN|   119           0.00154       -0.40278       -0.20833        0.00000
 BRILLOUIN|   120           0.00154       -0.40278       -0.18056        0.00000
 BRILLOUIN|   121           0.00154       -0.40278       -0.15278        0.00000
 BRILLOUIN|   122           0.00154       -0.40278       -0.12500        0.00000
 BRILLOUIN|   123           0.00154       -0.40278       -0.09722        0.00000
 BRILLOUIN|   124           0.00154       -0.40278       -0.06944        0.00000
 BRILLOUIN|   125           0.00154       -0.40278       -0.04167        0.00000
 BRILLOUIN|   126           0.00154       -0.40278       -0.01389        0.00000
 BRILLOUIN|   127           0.00154       -0.40278        0.01389        0.00000
 BRILLOUIN|   128           0.00154       -0.40278        0.04167        0.00000
 BRILLOUIN|   129           0.00154       -0.40278        0.06944        0.00000
 BRILLOUIN|   130           0.00154       -0.40278        0.09722        0.00000
 BRILLOUIN|   131           0.00154       -0.40278        0.12500        0.00000
 BRILLOUIN|   132           0.00154       -0.40278        0.15278        0.00000
 BRILLOUIN|   133           0.00154       -0.40278        0.18056        0.00000
 BRILLOUIN|   134           0.00154       -0.40278        0.20833        0.00000
 BRILLOUIN|   135           0.00154       -0.40278        0.23611        0.00000
 BRILLOUIN|   136           0.00154       -0.40278        0.26389        0.00000
 BRILLOUIN|   137           0.00154       -0.40278        0.29167        0.00000
 BRILLOUIN|   138           0.00154       -0.40278        0.31944        0.00000
 BRILLOUIN|   139           0.00154       -0.40278        0.34722        0.00000
 BRILLOUIN|   140           0.00154       -0.40278        0.37500        0.00000
 BRILLOUIN|   141           0.00154       -0.40278        0.40278        0.00000
 BRILLOUIN|   142           0.00154       -0.40278        0.43056        0.00000
 BRILLOUIN|   143           0.00154       -0.40278        0.45833        0.00000
 BRILLOUIN|   144           0.00154       -0.40278        0.48611        0.00000
 BRILLOUIN|   145           0.00154       -0.37500       -0.48611        0.00000
 BRILLOUIN|   146           0.00154       -0.37500       -0.45833        0.00000
 BRILLOUIN|   147           0.00154       -0.37500       -0.43056        0.00000
 BRILLOUIN|   148           0.00154       -0.37500       -0.40278        0.00000
 BRILLOUIN|   149           0.00154       -0.37500       -0.37500        0.00000
 BRILLOUIN|   150           0.00154       -0.37500       -0.34722        0.00000
 BRILLOUIN|   151           0.00154       -0.37500       -0.31944        0.00000
 BRILLOUIN|   152           0.00154       -0.37500       -0.29167        0.00000
 BRILLOUIN|   153           0.00154       -0.37500       -0.26389        0.00000
 BRILLOUIN|   154           0.00154       -0.37500       -0.23611        0.00000
 BRILLOUIN|   155           0.00154       -0.37500       -0.20833        0.00000
 BRILLOUIN|   156           0.00154       -0.37500       -0.18056        0.00000
 BRILLOUIN|   157           0.00154       -0.37500       -0.15278        0.00000
 BRILLOUIN|   158           0.00154       -0.37500       -0.12500        0.00000
 BRILLOUIN|   159           0.00154       -0.37500       -0.09722        0.00000
 BRILLOUIN|   160           0.00154       -0.37500       -0.06944        0.00000
 BRILLOUIN|   161           0.00154       -0.37500       -0.04167        0.00000
 BRILLOUIN|   162           0.00154       -0.37500       -0.01389        0.00000
 BRILLOUIN|   163           0.00154       -0.37500        0.01389        0.00000
 BRILLOUIN|   164           0.00154       -0.37500        0.04167        0.00000
 BRILLOUIN|   165           0.00154       -0.37500        0.06944        0.00000
 BRILLOUIN|   166           0.00154       -0.37500        0.09722        0.00000
 BRILLOUIN|   167           0.00154       -0.37500        0.12500        0.00000
 BRILLOUIN|   168           0.00154       -0.37500        0.15278        0.00000
 BRILLOUIN|   169           0.00154       -0.37500        0.18056        0.00000
 BRILLOUIN|   170           0.00154       -0.37500        0.20833        0.00000
 BRILLOUIN|   171           0.00154       -0.37500        0.23611        0.00000
 BRILLOUIN|   172           0.00154       -0.37500        0.26389        0.00000
 BRILLOUIN|   173           0.00154       -0.37500        0.29167        0.00000
 BRILLOUIN|   174           0.00154       -0.37500        0.31944        0.00000
 BRILLOUIN|   175           0.00154       -0.37500        0.34722        0.00000
 BRILLOUIN|   176           0.00154       -0.37500        0.37500        0.00000
 BRILLOUIN|   177           0.00154       -0.37500        0.40278        0.00000
 BRILLOUIN|   178           0.00154       -0.37500        0.43056        0.00000
 BRILLOUIN|   179           0.00154       -0.37500        0.45833        0.00000
 BRILLOUIN|   180           0.00154       -0.37500        0.48611        0.00000
 BRILLOUIN|   181           0.00154       -0.34722       -0.48611        0.00000
 BRILLOUIN|   182           0.00154       -0.34722       -0.45833        0.00000
 BRILLOUIN|   183           0.00154       -0.34722       -0.43056        0.00000
 BRILLOUIN|   184           0.00154       -0.34722       -0.40278        0.00000
 BRILLOUIN|   185           0.00154       -0.34722       -0.37500        0.00000
 BRILLOUIN|   186           0.00154       -0.34722       -0.34722        0.00000
 BRILLOUIN|   187           0.00154       -0.34722       -0.31944        0.00000
 BRILLOUIN|   188           0.00154       -0.34722       -0.29167        0.00000
 BRILLOUIN|   189           0.00154       -0.34722       -0.26389        0.00000
 BRILLOUIN|   190           0.00154       -0.34722       -0.23611        0.00000
 BRILLOUIN|   191           0.00154       -0.34722       -0.20833        0.00000
 BRILLOUIN|   192           0.00154       -0.34722       -0.18056        0.00000
 BRILLOUIN|   193           0.00154       -0.34722       -0.15278        0.00000
 BRILLOUIN|   194           0.00154       -0.34722       -0.12500        0.00000
 BRILLOUIN|   195           0.00154       -0.34722       -0.09722        0.00000
 BRILLOUIN|   196           0.00154       -0.34722       -0.06944        0.00000
 BRILLOUIN|   197           0.00154       -0.34722       -0.04167        0.00000
 BRILLOUIN|   198           0.00154       -0.34722       -0.01389        0.00000
 BRILLOUIN|   199           0.00154       -0.34722        0.01389        0.00000
 BRILLOUIN|   200           0.00154       -0.34722        0.04167        0.00000
 BRILLOUIN|   201           0.00154       -0.34722        0.06944        0.00000
 BRILLOUIN|   202           0.00154       -0.34722        0.09722        0.00000
 BRILLOUIN|   203           0.00154       -0.34722        0.12500        0.00000
 BRILLOUIN|   204           0.00154       -0.34722        0.15278        0.00000
 BRILLOUIN|   205           0.00154       -0.34722        0.18056        0.00000
 BRILLOUIN|   206           0.00154       -0.34722        0.20833        0.00000
 BRILLOUIN|   207           0.00154       -0.34722        0.23611        0.00000
 BRILLOUIN|   208           0.00154       -0.34722        0.26389        0.00000
 BRILLOUIN|   209           0.00154       -0.34722        0.29167        0.00000
 BRILLOUIN|   210           0.00154       -0.34722        0.31944        0.00000
 BRILLOUIN|   211           0.00154       -0.34722        0.34722        0.00000
 BRILLOUIN|   212           0.00154       -0.34722        0.37500        0.00000
 BRILLOUIN|   213           0.00154       -0.34722        0.40278        0.00000
 BRILLOUIN|   214           0.00154       -0.34722        0.43056        0.00000
 BRILLOUIN|   215           0.00154       -0.34722        0.45833        0.00000
 BRILLOUIN|   216           0.00154       -0.34722        0.48611        0.00000
 BRILLOUIN|   217           0.00154       -0.31944       -0.48611        0.00000
 BRILLOUIN|   218           0.00154       -0.31944       -0.45833        0.00000
 BRILLOUIN|   219           0.00154       -0.31944       -0.43056        0.00000
 BRILLOUIN|   220           0.00154       -0.31944       -0.40278        0.00000
 BRILLOUIN|   221           0.00154       -0.31944       -0.37500        0.00000
 BRILLOUIN|   222           0.00154       -0.31944       -0.34722        0.00000
 BRILLOUIN|   223           0.00154       -0.31944       -0.31944        0.00000
 BRILLOUIN|   224           0.00154       -0.31944       -0.29167        0.00000
 BRILLOUIN|   225           0.00154       -0.31944       -0.26389        0.00000
 BRILLOUIN|   226           0.00154       -0.31944       -0.23611        0.00000
 BRILLOUIN|   227           0.00154       -0.31944       -0.20833        0.00000
 BRILLOUIN|   228           0.00154       -0.31944       -0.18056        0.00000
 BRILLOUIN|   229           0.00154       -0.31944       -0.15278        0.00000
 BRILLOUIN|   230           0.00154       -0.31944       -0.12500        0.00000
 BRILLOUIN|   231           0.00154       -0.31944       -0.09722        0.00000
 BRILLOUIN|   232           0.00154       -0.31944       -0.06944        0.00000
 BRILLOUIN|   233           0.00154       -0.31944       -0.04167        0.00000
 BRILLOUIN|   234           0.00154       -0.31944       -0.01389        0.00000
 BRILLOUIN|   235           0.00154       -0.31944        0.01389        0.00000
 BRILLOUIN|   236           0.00154       -0.31944        0.04167        0.00000
 BRILLOUIN|   237           0.00154       -0.31944        0.06944        0.00000
 BRILLOUIN|   238           0.00154       -0.31944        0.09722        0.00000
 BRILLOUIN|   239           0.00154       -0.31944        0.12500        0.00000
 BRILLOUIN|   240           0.00154       -0.31944        0.15278        0.00000
 BRILLOUIN|   241           0.00154       -0.31944        0.18056        0.00000
 BRILLOUIN|   242           0.00154       -0.31944        0.20833        0.00000
 BRILLOUIN|   243           0.00154       -0.31944        0.23611        0.00000
 BRILLOUIN|   244           0.00154       -0.31944        0.26389        0.00000
 BRILLOUIN|   245           0.00154       -0.31944        0.29167        0.00000
 BRILLOUIN|   246           0.00154       -0.31944        0.31944        0.00000
 BRILLOUIN|   247           0.00154       -0.31944        0.34722        0.00000
 BRILLOUIN|   248           0.00154       -0.31944        0.37500        0.00000
 BRILLOUIN|   249           0.00154       -0.31944        0.40278        0.00000
 BRILLOUIN|   250           0.00154       -0.31944        0.43056        0.00000
 BRILLOUIN|   251           0.00154       -0.31944        0.45833        0.00000
 BRILLOUIN|   252           0.00154       -0.31944        0.48611        0.00000
 BRILLOUIN|   253           0.00154       -0.29167       -0.48611        0.00000
 BRILLOUIN|   254           0.00154       -0.29167       -0.45833        0.00000
 BRILLOUIN|   255           0.00154       -0.29167       -0.43056        0.00000
 BRILLOUIN|   256           0.00154       -0.29167       -0.40278        0.00000
 BRILLOUIN|   257           0.00154       -0.29167       -0.37500        0.00000
 BRILLOUIN|   258           0.00154       -0.29167       -0.34722        0.00000
 BRILLOUIN|   259           0.00154       -0.29167       -0.31944        0.00000
 BRILLOUIN|   260           0.00154       -0.29167       -0.29167        0.00000
 BRILLOUIN|   261           0.00154       -0.29167       -0.26389        0.00000
 BRILLOUIN|   262           0.00154       -0.29167       -0.23611        0.00000
 BRILLOUIN|   263           0.00154       -0.29167       -0.20833        0.00000
 BRILLOUIN|   264           0.00154       -0.29167       -0.18056        0.00000
 BRILLOUIN|   265           0.00154       -0.29167       -0.15278        0.00000
 BRILLOUIN|   266           0.00154       -0.29167       -0.12500        0.00000
 BRILLOUIN|   267           0.00154       -0.29167       -0.09722        0.00000
 BRILLOUIN|   268           0.00154       -0.29167       -0.06944        0.00000
 BRILLOUIN|   269           0.00154       -0.29167       -0.04167        0.00000
 BRILLOUIN|   270           0.00154       -0.29167       -0.01389        0.00000
 BRILLOUIN|   271           0.00154       -0.29167        0.01389        0.00000
 BRILLOUIN|   272           0.00154       -0.29167        0.04167        0.00000
 BRILLOUIN|   273           0.00154       -0.29167        0.06944        0.00000
 BRILLOUIN|   274           0.00154       -0.29167        0.09722        0.00000
 BRILLOUIN|   275           0.00154       -0.29167        0.12500        0.00000
 BRILLOUIN|   276           0.00154       -0.29167        0.15278        0.00000
 BRILLOUIN|   277           0.00154       -0.29167        0.18056        0.00000
 BRILLOUIN|   278           0.00154       -0.29167        0.20833        0.00000
 BRILLOUIN|   279           0.00154       -0.29167        0.23611        0.00000
 BRILLOUIN|   280           0.00154       -0.29167        0.26389        0.00000
 BRILLOUIN|   281           0.00154       -0.29167        0.29167        0.00000
 BRILLOUIN|   282           0.00154       -0.29167        0.31944        0.00000
 BRILLOUIN|   283           0.00154       -0.29167        0.34722        0.00000
 BRILLOUIN|   284           0.00154       -0.29167        0.37500        0.00000
 BRILLOUIN|   285           0.00154       -0.29167        0.40278        0.00000
 BRILLOUIN|   286           0.00154       -0.29167        0.43056        0.00000
 BRILLOUIN|   287           0.00154       -0.29167        0.45833        0.00000
 BRILLOUIN|   288           0.00154       -0.29167        0.48611        0.00000
 BRILLOUIN|   289           0.00154       -0.26389       -0.48611        0.00000
 BRILLOUIN|   290           0.00154       -0.26389       -0.45833        0.00000
 BRILLOUIN|   291           0.00154       -0.26389       -0.43056        0.00000
 BRILLOUIN|   292           0.00154       -0.26389       -0.40278        0.00000
 BRILLOUIN|   293           0.00154       -0.26389       -0.37500        0.00000
 BRILLOUIN|   294           0.00154       -0.26389       -0.34722        0.00000
 BRILLOUIN|   295           0.00154       -0.26389       -0.31944        0.00000
 BRILLOUIN|   296           0.00154       -0.26389       -0.29167        0.00000
 BRILLOUIN|   297           0.00154       -0.26389       -0.26389        0.00000
 BRILLOUIN|   298           0.00154       -0.26389       -0.23611        0.00000
 BRILLOUIN|   299           0.00154       -0.26389       -0.20833        0.00000
 BRILLOUIN|   300           0.00154       -0.26389       -0.18056        0.00000
 BRILLOUIN|   301           0.00154       -0.26389       -0.15278        0.00000
 BRILLOUIN|   302           0.00154       -0.26389       -0.12500        0.00000
 BRILLOUIN|   303           0.00154       -0.26389       -0.09722        0.00000
 BRILLOUIN|   304           0.00154       -0.26389       -0.06944        0.00000
 BRILLOUIN|   305           0.00154       -0.26389       -0.04167        0.00000
 BRILLOUIN|   306           0.00154       -0.26389       -0.01389        0.00000
 BRILLOUIN|   307           0.00154       -0.26389        0.01389        0.00000
 BRILLOUIN|   308           0.00154       -0.26389        0.04167        0.00000
 BRILLOUIN|   309           0.00154       -0.26389        0.06944        0.00000
 BRILLOUIN|   310           0.00154       -0.26389        0.09722        0.00000
 BRILLOUIN|   311           0.00154       -0.26389        0.12500        0.00000
 BRILLOUIN|   312           0.00154       -0.26389        0.15278        0.00000
 BRILLOUIN|   313           0.00154       -0.26389        0.18056        0.00000
 BRILLOUIN|   314           0.00154       -0.26389        0.20833        0.00000
 BRILLOUIN|   315           0.00154       -0.26389        0.23611        0.00000
 BRILLOUIN|   316           0.00154       -0.26389        0.26389        0.00000
 BRILLOUIN|   317           0.00154       -0.26389        0.29167        0.00000
 BRILLOUIN|   318           0.00154       -0.26389        0.31944        0.00000
 BRILLOUIN|   319           0.00154       -0.26389        0.34722        0.00000
 BRILLOUIN|   320           0.00154       -0.26389        0.37500        0.00000
 BRILLOUIN|   321           0.00154       -0.26389        0.40278        0.00000
 BRILLOUIN|   322           0.00154       -0.26389        0.43056        0.00000
 BRILLOUIN|   323           0.00154       -0.26389        0.45833        0.00000
 BRILLOUIN|   324           0.00154       -0.26389        0.48611        0.00000
 BRILLOUIN|   325           0.00154       -0.23611       -0.48611        0.00000
 BRILLOUIN|   326           0.00154       -0.23611       -0.45833        0.00000
 BRILLOUIN|   327           0.00154       -0.23611       -0.43056        0.00000
 BRILLOUIN|   328           0.00154       -0.23611       -0.40278        0.00000
 BRILLOUIN|   329           0.00154       -0.23611       -0.37500        0.00000
 BRILLOUIN|   330           0.00154       -0.23611       -0.34722        0.00000
 BRILLOUIN|   331           0.00154       -0.23611       -0.31944        0.00000
 BRILLOUIN|   332           0.00154       -0.23611       -0.29167        0.00000
 BRILLOUIN|   333           0.00154       -0.23611       -0.26389        0.00000
 BRILLOUIN|   334           0.00154       -0.23611       -0.23611        0.00000
 BRILLOUIN|   335           0.00154       -0.23611       -0.20833        0.00000
 BRILLOUIN|   336           0.00154       -0.23611       -0.18056        0.00000
 BRILLOUIN|   337           0.00154       -0.23611       -0.15278        0.00000
 BRILLOUIN|   338           0.00154       -0.23611       -0.12500        0.00000
 BRILLOUIN|   339           0.00154       -0.23611       -0.09722        0.00000
 BRILLOUIN|   340           0.00154       -0.23611       -0.06944        0.00000
 BRILLOUIN|   341           0.00154       -0.23611       -0.04167        0.00000
 BRILLOUIN|   342           0.00154       -0.23611       -0.01389        0.00000
 BRILLOUIN|   343           0.00154       -0.23611        0.01389        0.00000
 BRILLOUIN|   344           0.00154       -0.23611        0.04167        0.00000
 BRILLOUIN|   345           0.00154       -0.23611        0.06944        0.00000
 BRILLOUIN|   346           0.00154       -0.23611        0.09722        0.00000
 BRILLOUIN|   347           0.00154       -0.23611        0.12500        0.00000
 BRILLOUIN|   348           0.00154       -0.23611        0.15278        0.00000
 BRILLOUIN|   349           0.00154       -0.23611        0.18056        0.00000
 BRILLOUIN|   350           0.00154       -0.23611        0.20833        0.00000
 BRILLOUIN|   351           0.00154       -0.23611        0.23611        0.00000
 BRILLOUIN|   352           0.00154       -0.23611        0.26389        0.00000
 BRILLOUIN|   353           0.00154       -0.23611        0.29167        0.00000
 BRILLOUIN|   354           0.00154       -0.23611        0.31944        0.00000
 BRILLOUIN|   355           0.00154       -0.23611        0.34722        0.00000
 BRILLOUIN|   356           0.00154       -0.23611        0.37500        0.00000
 BRILLOUIN|   357           0.00154       -0.23611        0.40278        0.00000
 BRILLOUIN|   358           0.00154       -0.23611        0.43056        0.00000
 BRILLOUIN|   359           0.00154       -0.23611        0.45833        0.00000
 BRILLOUIN|   360           0.00154       -0.23611        0.48611        0.00000
 BRILLOUIN|   361           0.00154       -0.20833       -0.48611        0.00000
 BRILLOUIN|   362           0.00154       -0.20833       -0.45833        0.00000
 BRILLOUIN|   363           0.00154       -0.20833       -0.43056        0.00000
 BRILLOUIN|   364           0.00154       -0.20833       -0.40278        0.00000
 BRILLOUIN|   365           0.00154       -0.20833       -0.37500        0.00000
 BRILLOUIN|   366           0.00154       -0.20833       -0.34722        0.00000
 BRILLOUIN|   367           0.00154       -0.20833       -0.31944        0.00000
 BRILLOUIN|   368           0.00154       -0.20833       -0.29167        0.00000
 BRILLOUIN|   369           0.00154       -0.20833       -0.26389        0.00000
 BRILLOUIN|   370           0.00154       -0.20833       -0.23611        0.00000
 BRILLOUIN|   371           0.00154       -0.20833       -0.20833        0.00000
 BRILLOUIN|   372           0.00154       -0.20833       -0.18056        0.00000
 BRILLOUIN|   373           0.00154       -0.20833       -0.15278        0.00000
 BRILLOUIN|   374           0.00154       -0.20833       -0.12500        0.00000
 BRILLOUIN|   375           0.00154       -0.20833       -0.09722        0.00000
 BRILLOUIN|   376           0.00154       -0.20833       -0.06944        0.00000
 BRILLOUIN|   377           0.00154       -0.20833       -0.04167        0.00000
 BRILLOUIN|   378           0.00154       -0.20833       -0.01389        0.00000
 BRILLOUIN|   379           0.00154       -0.20833        0.01389        0.00000
 BRILLOUIN|   380           0.00154       -0.20833        0.04167        0.00000
 BRILLOUIN|   381           0.00154       -0.20833        0.06944        0.00000
 BRILLOUIN|   382           0.00154       -0.20833        0.09722        0.00000
 BRILLOUIN|   383           0.00154       -0.20833        0.12500        0.00000
 BRILLOUIN|   384           0.00154       -0.20833        0.15278        0.00000
 BRILLOUIN|   385           0.00154       -0.20833        0.18056        0.00000
 BRILLOUIN|   386           0.00154       -0.20833        0.20833        0.00000
 BRILLOUIN|   387           0.00154       -0.20833        0.23611        0.00000
 BRILLOUIN|   388           0.00154       -0.20833        0.26389        0.00000
 BRILLOUIN|   389           0.00154       -0.20833        0.29167        0.00000
 BRILLOUIN|   390           0.00154       -0.20833        0.31944        0.00000
 BRILLOUIN|   391           0.00154       -0.20833        0.34722        0.00000
 BRILLOUIN|   392           0.00154       -0.20833        0.37500        0.00000
 BRILLOUIN|   393           0.00154       -0.20833        0.40278        0.00000
 BRILLOUIN|   394           0.00154       -0.20833        0.43056        0.00000
 BRILLOUIN|   395           0.00154       -0.20833        0.45833        0.00000
 BRILLOUIN|   396           0.00154       -0.20833        0.48611        0.00000
 BRILLOUIN|   397           0.00154       -0.18056       -0.48611        0.00000
 BRILLOUIN|   398           0.00154       -0.18056       -0.45833        0.00000
 BRILLOUIN|   399           0.00154       -0.18056       -0.43056        0.00000
 BRILLOUIN|   400           0.00154       -0.18056       -0.40278        0.00000
 BRILLOUIN|   401           0.00154       -0.18056       -0.37500        0.00000
 BRILLOUIN|   402           0.00154       -0.18056       -0.34722        0.00000
 BRILLOUIN|   403           0.00154       -0.18056       -0.31944        0.00000
 BRILLOUIN|   404           0.00154       -0.18056       -0.29167        0.00000
 BRILLOUIN|   405           0.00154       -0.18056       -0.26389        0.00000
 BRILLOUIN|   406           0.00154       -0.18056       -0.23611        0.00000
 BRILLOUIN|   407           0.00154       -0.18056       -0.20833        0.00000
 BRILLOUIN|   408           0.00154       -0.18056       -0.18056        0.00000
 BRILLOUIN|   409           0.00154       -0.18056       -0.15278        0.00000
 BRILLOUIN|   410           0.00154       -0.18056       -0.12500        0.00000
 BRILLOUIN|   411           0.00154       -0.18056       -0.09722        0.00000
 BRILLOUIN|   412           0.00154       -0.18056       -0.06944        0.00000
 BRILLOUIN|   413           0.00154       -0.18056       -0.04167        0.00000
 BRILLOUIN|   414           0.00154       -0.18056       -0.01389        0.00000
 BRILLOUIN|   415           0.00154       -0.18056        0.01389        0.00000
 BRILLOUIN|   416           0.00154       -0.18056        0.04167        0.00000
 BRILLOUIN|   417           0.00154       -0.18056        0.06944        0.00000
 BRILLOUIN|   418           0.00154       -0.18056        0.09722        0.00000
 BRILLOUIN|   419           0.00154       -0.18056        0.12500        0.00000
 BRILLOUIN|   420           0.00154       -0.18056        0.15278        0.00000
 BRILLOUIN|   421           0.00154       -0.18056        0.18056        0.00000
 BRILLOUIN|   422           0.00154       -0.18056        0.20833        0.00000
 BRILLOUIN|   423           0.00154       -0.18056        0.23611        0.00000
 BRILLOUIN|   424           0.00154       -0.18056        0.26389        0.00000
 BRILLOUIN|   425           0.00154       -0.18056        0.29167        0.00000
 BRILLOUIN|   426           0.00154       -0.18056        0.31944        0.00000
 BRILLOUIN|   427           0.00154       -0.18056        0.34722        0.00000
 BRILLOUIN|   428           0.00154       -0.18056        0.37500        0.00000
 BRILLOUIN|   429           0.00154       -0.18056        0.40278        0.00000
 BRILLOUIN|   430           0.00154       -0.18056        0.43056        0.00000
 BRILLOUIN|   431           0.00154       -0.18056        0.45833        0.00000
 BRILLOUIN|   432           0.00154       -0.18056        0.48611        0.00000
 BRILLOUIN|   433           0.00154       -0.15278       -0.48611        0.00000
 BRILLOUIN|   434           0.00154       -0.15278       -0.45833        0.00000
 BRILLOUIN|   435           0.00154       -0.15278       -0.43056        0.00000
 BRILLOUIN|   436           0.00154       -0.15278       -0.40278        0.00000
 BRILLOUIN|   437           0.00154       -0.15278       -0.37500        0.00000
 BRILLOUIN|   438           0.00154       -0.15278       -0.34722        0.00000
 BRILLOUIN|   439           0.00154       -0.15278       -0.31944        0.00000
 BRILLOUIN|   440           0.00154       -0.15278       -0.29167        0.00000
 BRILLOUIN|   441           0.00154       -0.15278       -0.26389        0.00000
 BRILLOUIN|   442           0.00154       -0.15278       -0.23611        0.00000
 BRILLOUIN|   443           0.00154       -0.15278       -0.20833        0.00000
 BRILLOUIN|   444           0.00154       -0.15278       -0.18056        0.00000
 BRILLOUIN|   445           0.00154       -0.15278       -0.15278        0.00000
 BRILLOUIN|   446           0.00154       -0.15278       -0.12500        0.00000
 BRILLOUIN|   447           0.00154       -0.15278       -0.09722        0.00000
 BRILLOUIN|   448           0.00154       -0.15278       -0.06944        0.00000
 BRILLOUIN|   449           0.00154       -0.15278       -0.04167        0.00000
 BRILLOUIN|   450           0.00154       -0.15278       -0.01389        0.00000
 BRILLOUIN|   451           0.00154       -0.15278        0.01389        0.00000
 BRILLOUIN|   452           0.00154       -0.15278        0.04167        0.00000
 BRILLOUIN|   453           0.00154       -0.15278        0.06944        0.00000
 BRILLOUIN|   454           0.00154       -0.15278        0.09722        0.00000
 BRILLOUIN|   455           0.00154       -0.15278        0.12500        0.00000
 BRILLOUIN|   456           0.00154       -0.15278        0.15278        0.00000
 BRILLOUIN|   457           0.00154       -0.15278        0.18056        0.00000
 BRILLOUIN|   458           0.00154       -0.15278        0.20833        0.00000
 BRILLOUIN|   459           0.00154       -0.15278        0.23611        0.00000
 BRILLOUIN|   460           0.00154       -0.15278        0.26389        0.00000
 BRILLOUIN|   461           0.00154       -0.15278        0.29167        0.00000
 BRILLOUIN|   462           0.00154       -0.15278        0.31944        0.00000
 BRILLOUIN|   463           0.00154       -0.15278        0.34722        0.00000
 BRILLOUIN|   464           0.00154       -0.15278        0.37500        0.00000
 BRILLOUIN|   465           0.00154       -0.15278        0.40278        0.00000
 BRILLOUIN|   466           0.00154       -0.15278        0.43056        0.00000
 BRILLOUIN|   467           0.00154       -0.15278        0.45833        0.00000
 BRILLOUIN|   468           0.00154       -0.15278        0.48611        0.00000
 BRILLOUIN|   469           0.00154       -0.12500       -0.48611        0.00000
 BRILLOUIN|   470           0.00154       -0.12500       -0.45833        0.00000
 BRILLOUIN|   471           0.00154       -0.12500       -0.43056        0.00000
 BRILLOUIN|   472           0.00154       -0.12500       -0.40278        0.00000
 BRILLOUIN|   473           0.00154       -0.12500       -0.37500        0.00000
 BRILLOUIN|   474           0.00154       -0.12500       -0.34722        0.00000
 BRILLOUIN|   475           0.00154       -0.12500       -0.31944        0.00000
 BRILLOUIN|   476           0.00154       -0.12500       -0.29167        0.00000
 BRILLOUIN|   477           0.00154       -0.12500       -0.26389        0.00000
 BRILLOUIN|   478           0.00154       -0.12500       -0.23611        0.00000
 BRILLOUIN|   479           0.00154       -0.12500       -0.20833        0.00000
 BRILLOUIN|   480           0.00154       -0.12500       -0.18056        0.00000
 BRILLOUIN|   481           0.00154       -0.12500       -0.15278        0.00000
 BRILLOUIN|   482           0.00154       -0.12500       -0.12500        0.00000
 BRILLOUIN|   483           0.00154       -0.12500       -0.09722        0.00000
 BRILLOUIN|   484           0.00154       -0.12500       -0.06944        0.00000
 BRILLOUIN|   485           0.00154       -0.12500       -0.04167        0.00000
 BRILLOUIN|   486           0.00154       -0.12500       -0.01389        0.00000
 BRILLOUIN|   487           0.00154       -0.12500        0.01389        0.00000
 BRILLOUIN|   488           0.00154       -0.12500        0.04167        0.00000
 BRILLOUIN|   489           0.00154       -0.12500        0.06944        0.00000
 BRILLOUIN|   490           0.00154       -0.12500        0.09722        0.00000
 BRILLOUIN|   491           0.00154       -0.12500        0.12500        0.00000
 BRILLOUIN|   492           0.00154       -0.12500        0.15278        0.00000
 BRILLOUIN|   493           0.00154       -0.12500        0.18056        0.00000
 BRILLOUIN|   494           0.00154       -0.12500        0.20833        0.00000
 BRILLOUIN|   495           0.00154       -0.12500        0.23611        0.00000
 BRILLOUIN|   496           0.00154       -0.12500        0.26389        0.00000
 BRILLOUIN|   497           0.00154       -0.12500        0.29167        0.00000
 BRILLOUIN|   498           0.00154       -0.12500        0.31944        0.00000
 BRILLOUIN|   499           0.00154       -0.12500        0.34722        0.00000
 BRILLOUIN|   500           0.00154       -0.12500        0.37500        0.00000
 BRILLOUIN|   501           0.00154       -0.12500        0.40278        0.00000
 BRILLOUIN|   502           0.00154       -0.12500        0.43056        0.00000
 BRILLOUIN|   503           0.00154       -0.12500        0.45833        0.00000
 BRILLOUIN|   504           0.00154       -0.12500        0.48611        0.00000
 BRILLOUIN|   505           0.00154       -0.09722       -0.48611        0.00000
 BRILLOUIN|   506           0.00154       -0.09722       -0.45833        0.00000
 BRILLOUIN|   507           0.00154       -0.09722       -0.43056        0.00000
 BRILLOUIN|   508           0.00154       -0.09722       -0.40278        0.00000
 BRILLOUIN|   509           0.00154       -0.09722       -0.37500        0.00000
 BRILLOUIN|   510           0.00154       -0.09722       -0.34722        0.00000
 BRILLOUIN|   511           0.00154       -0.09722       -0.31944        0.00000
 BRILLOUIN|   512           0.00154       -0.09722       -0.29167        0.00000
 BRILLOUIN|   513           0.00154       -0.09722       -0.26389        0.00000
 BRILLOUIN|   514           0.00154       -0.09722       -0.23611        0.00000
 BRILLOUIN|   515           0.00154       -0.09722       -0.20833        0.00000
 BRILLOUIN|   516           0.00154       -0.09722       -0.18056        0.00000
 BRILLOUIN|   517           0.00154       -0.09722       -0.15278        0.00000
 BRILLOUIN|   518           0.00154       -0.09722       -0.12500        0.00000
 BRILLOUIN|   519           0.00154       -0.09722       -0.09722        0.00000
 BRILLOUIN|   520           0.00154       -0.09722       -0.06944        0.00000
 BRILLOUIN|   521           0.00154       -0.09722       -0.04167        0.00000
 BRILLOUIN|   522           0.00154       -0.09722       -0.01389        0.00000
 BRILLOUIN|   523           0.00154       -0.09722        0.01389        0.00000
 BRILLOUIN|   524           0.00154       -0.09722        0.04167        0.00000
 BRILLOUIN|   525           0.00154       -0.09722        0.06944        0.00000
 BRILLOUIN|   526           0.00154       -0.09722        0.09722        0.00000
 BRILLOUIN|   527           0.00154       -0.09722        0.12500        0.00000
 BRILLOUIN|   528           0.00154       -0.09722        0.15278        0.00000
 BRILLOUIN|   529           0.00154       -0.09722        0.18056        0.00000
 BRILLOUIN|   530           0.00154       -0.09722        0.20833        0.00000
 BRILLOUIN|   531           0.00154       -0.09722        0.23611        0.00000
 BRILLOUIN|   532           0.00154       -0.09722        0.26389        0.00000
 BRILLOUIN|   533           0.00154       -0.09722        0.29167        0.00000
 BRILLOUIN|   534           0.00154       -0.09722        0.31944        0.00000
 BRILLOUIN|   535           0.00154       -0.09722        0.34722        0.00000
 BRILLOUIN|   536           0.00154       -0.09722        0.37500        0.00000
 BRILLOUIN|   537           0.00154       -0.09722        0.40278        0.00000
 BRILLOUIN|   538           0.00154       -0.09722        0.43056        0.00000
 BRILLOUIN|   539           0.00154       -0.09722        0.45833        0.00000
 BRILLOUIN|   540           0.00154       -0.09722        0.48611        0.00000
 BRILLOUIN|   541           0.00154       -0.06944       -0.48611        0.00000
 BRILLOUIN|   542           0.00154       -0.06944       -0.45833        0.00000
 BRILLOUIN|   543           0.00154       -0.06944       -0.43056        0.00000
 BRILLOUIN|   544           0.00154       -0.06944       -0.40278        0.00000
 BRILLOUIN|   545           0.00154       -0.06944       -0.37500        0.00000
 BRILLOUIN|   546           0.00154       -0.06944       -0.34722        0.00000
 BRILLOUIN|   547           0.00154       -0.06944       -0.31944        0.00000
 BRILLOUIN|   548           0.00154       -0.06944       -0.29167        0.00000
 BRILLOUIN|   549           0.00154       -0.06944       -0.26389        0.00000
 BRILLOUIN|   550           0.00154       -0.06944       -0.23611        0.00000
 BRILLOUIN|   551           0.00154       -0.06944       -0.20833        0.00000
 BRILLOUIN|   552           0.00154       -0.06944       -0.18056        0.00000
 BRILLOUIN|   553           0.00154       -0.06944       -0.15278        0.00000
 BRILLOUIN|   554           0.00154       -0.06944       -0.12500        0.00000
 BRILLOUIN|   555           0.00154       -0.06944       -0.09722        0.00000
 BRILLOUIN|   556           0.00154       -0.06944       -0.06944        0.00000
 BRILLOUIN|   557           0.00154       -0.06944       -0.04167        0.00000
 BRILLOUIN|   558           0.00154       -0.06944       -0.01389        0.00000
 BRILLOUIN|   559           0.00154       -0.06944        0.01389        0.00000
 BRILLOUIN|   560           0.00154       -0.06944        0.04167        0.00000
 BRILLOUIN|   561           0.00154       -0.06944        0.06944        0.00000
 BRILLOUIN|   562           0.00154       -0.06944        0.09722        0.00000
 BRILLOUIN|   563           0.00154       -0.06944        0.12500        0.00000
 BRILLOUIN|   564           0.00154       -0.06944        0.15278        0.00000
 BRILLOUIN|   565           0.00154       -0.06944        0.18056        0.00000
 BRILLOUIN|   566           0.00154       -0.06944        0.20833        0.00000
 BRILLOUIN|   567           0.00154       -0.06944        0.23611        0.00000
 BRILLOUIN|   568           0.00154       -0.06944        0.26389        0.00000
 BRILLOUIN|   569           0.00154       -0.06944        0.29167        0.00000
 BRILLOUIN|   570           0.00154       -0.06944        0.31944        0.00000
 BRILLOUIN|   571           0.00154       -0.06944        0.34722        0.00000
 BRILLOUIN|   572           0.00154       -0.06944        0.37500        0.00000
 BRILLOUIN|   573           0.00154       -0.06944        0.40278        0.00000
 BRILLOUIN|   574           0.00154       -0.06944        0.43056        0.00000
 BRILLOUIN|   575           0.00154       -0.06944        0.45833        0.00000
 BRILLOUIN|   576           0.00154       -0.06944        0.48611        0.00000
 BRILLOUIN|   577           0.00154       -0.04167       -0.48611        0.00000
 BRILLOUIN|   578           0.00154       -0.04167       -0.45833        0.00000
 BRILLOUIN|   579           0.00154       -0.04167       -0.43056        0.00000
 BRILLOUIN|   580           0.00154       -0.04167       -0.40278        0.00000
 BRILLOUIN|   581           0.00154       -0.04167       -0.37500        0.00000
 BRILLOUIN|   582           0.00154       -0.04167       -0.34722        0.00000
 BRILLOUIN|   583           0.00154       -0.04167       -0.31944        0.00000
 BRILLOUIN|   584           0.00154       -0.04167       -0.29167        0.00000
 BRILLOUIN|   585           0.00154       -0.04167       -0.26389        0.00000
 BRILLOUIN|   586           0.00154       -0.04167       -0.23611        0.00000
 BRILLOUIN|   587           0.00154       -0.04167       -0.20833        0.00000
 BRILLOUIN|   588           0.00154       -0.04167       -0.18056        0.00000
 BRILLOUIN|   589           0.00154       -0.04167       -0.15278        0.00000
 BRILLOUIN|   590           0.00154       -0.04167       -0.12500        0.00000
 BRILLOUIN|   591           0.00154       -0.04167       -0.09722        0.00000
 BRILLOUIN|   592           0.00154       -0.04167       -0.06944        0.00000
 BRILLOUIN|   593           0.00154       -0.04167       -0.04167        0.00000
 BRILLOUIN|   594           0.00154       -0.04167       -0.01389        0.00000
 BRILLOUIN|   595           0.00154       -0.04167        0.01389        0.00000
 BRILLOUIN|   596           0.00154       -0.04167        0.04167        0.00000
 BRILLOUIN|   597           0.00154       -0.04167        0.06944        0.00000
 BRILLOUIN|   598           0.00154       -0.04167        0.09722        0.00000
 BRILLOUIN|   599           0.00154       -0.04167        0.12500        0.00000
 BRILLOUIN|   600           0.00154       -0.04167        0.15278        0.00000
 BRILLOUIN|   601           0.00154       -0.04167        0.18056        0.00000
 BRILLOUIN|   602           0.00154       -0.04167        0.20833        0.00000
 BRILLOUIN|   603           0.00154       -0.04167        0.23611        0.00000
 BRILLOUIN|   604           0.00154       -0.04167        0.26389        0.00000
 BRILLOUIN|   605           0.00154       -0.04167        0.29167        0.00000
 BRILLOUIN|   606           0.00154       -0.04167        0.31944        0.00000
 BRILLOUIN|   607           0.00154       -0.04167        0.34722        0.00000
 BRILLOUIN|   608           0.00154       -0.04167        0.37500        0.00000
 BRILLOUIN|   609           0.00154       -0.04167        0.40278        0.00000
 BRILLOUIN|   610           0.00154       -0.04167        0.43056        0.00000
 BRILLOUIN|   611           0.00154       -0.04167        0.45833        0.00000
 BRILLOUIN|   612           0.00154       -0.04167        0.48611        0.00000
 BRILLOUIN|   613           0.00154       -0.01389       -0.48611        0.00000
 BRILLOUIN|   614           0.00154       -0.01389       -0.45833        0.00000
 BRILLOUIN|   615           0.00154       -0.01389       -0.43056        0.00000
 BRILLOUIN|   616           0.00154       -0.01389       -0.40278        0.00000
 BRILLOUIN|   617           0.00154       -0.01389       -0.37500        0.00000
 BRILLOUIN|   618           0.00154       -0.01389       -0.34722        0.00000
 BRILLOUIN|   619           0.00154       -0.01389       -0.31944        0.00000
 BRILLOUIN|   620           0.00154       -0.01389       -0.29167        0.00000
 BRILLOUIN|   621           0.00154       -0.01389       -0.26389        0.00000
 BRILLOUIN|   622           0.00154       -0.01389       -0.23611        0.00000
 BRILLOUIN|   623           0.00154       -0.01389       -0.20833        0.00000
 BRILLOUIN|   624           0.00154       -0.01389       -0.18056        0.00000
 BRILLOUIN|   625           0.00154       -0.01389       -0.15278        0.00000
 BRILLOUIN|   626           0.00154       -0.01389       -0.12500        0.00000
 BRILLOUIN|   627           0.00154       -0.01389       -0.09722        0.00000
 BRILLOUIN|   628           0.00154       -0.01389       -0.06944        0.00000
 BRILLOUIN|   629           0.00154       -0.01389       -0.04167        0.00000
 BRILLOUIN|   630           0.00154       -0.01389       -0.01389        0.00000
 BRILLOUIN|   631           0.00154       -0.01389        0.01389        0.00000
 BRILLOUIN|   632           0.00154       -0.01389        0.04167        0.00000
 BRILLOUIN|   633           0.00154       -0.01389        0.06944        0.00000
 BRILLOUIN|   634           0.00154       -0.01389        0.09722        0.00000
 BRILLOUIN|   635           0.00154       -0.01389        0.12500        0.00000
 BRILLOUIN|   636           0.00154       -0.01389        0.15278        0.00000
 BRILLOUIN|   637           0.00154       -0.01389        0.18056        0.00000
 BRILLOUIN|   638           0.00154       -0.01389        0.20833        0.00000
 BRILLOUIN|   639           0.00154       -0.01389        0.23611        0.00000
 BRILLOUIN|   640           0.00154       -0.01389        0.26389        0.00000
 BRILLOUIN|   641           0.00154       -0.01389        0.29167        0.00000
 BRILLOUIN|   642           0.00154       -0.01389        0.31944        0.00000
 BRILLOUIN|   643           0.00154       -0.01389        0.34722        0.00000
 BRILLOUIN|   644           0.00154       -0.01389        0.37500        0.00000
 BRILLOUIN|   645           0.00154       -0.01389        0.40278        0.00000
 BRILLOUIN|   646           0.00154       -0.01389        0.43056        0.00000
 BRILLOUIN|   647           0.00154       -0.01389        0.45833        0.00000
 BRILLOUIN|   648           0.00154       -0.01389        0.48611        0.00000
 *******************************************************************************

 *******************************************************************************
 *******************************************************************************
 **                                                                           **
 **     #####                         ##              ##                      **
 **    ##   ##            ##          ##              ##                      **
 **   ##     ##                       ##            ######                    **
 **   ##     ##  ##   ##  ##   #####  ##  ##   ####   ##    #####    #####    **
 **   ##     ##  ##   ##  ##  ##      ## ##   ##      ##   ##   ##  ##   ##   **
 **   ##  ## ##  ##   ##  ##  ##      ####     ###    ##   ######   ######    **
 **    ##  ###   ##   ##  ##  ##      ## ##      ##   ##   ##       ##        **
 **     #######   #####   ##   #####  ##  ##  ####    ##    #####   ##        **
 **           ##                                                    ##        **
 **                                                                           **
 **                                                ... make the atoms dance   **
 **                                                                           **
 **            Copyright (C) by CP2K developers group (2000-2024)             **
 **                      J. Chem. Phys. 152, 194103 (2020)                    **
 **                                                                           **
 *******************************************************************************

 DFT| Spin restricted Kohn-Sham (RKS) calculation                            RKS
 DFT| Multiplicity                                                             1
 DFT| Number of spin states                                                    1
 DFT| Charge                                                                   0
 DFT| Self-interaction correction (SIC)                                       NO
 DFT| Cutoffs: density                                              1.000000E-10
 DFT|          gradient                                             1.000000E-10
 DFT|          tau                                                  1.000000E-10
 DFT|          cutoff_smoothing_range                               0.000000E+00
 DFT| XC density smoothing                                                  NONE
 DFT| XC derivatives                                                          PW

 FUNCTIONAL| PBE:
 FUNCTIONAL| J.P.Perdew, K.Burke, M.Ernzerhof, Phys. Rev. Letter, vol. 77, n 18,
 FUNCTIONAL|  pp. 3865-3868, (1996) {spin unpolarized}                          


 QS| Method:                                                                GAPW
 QS| Density plane wave grid type                        NON-SPHERICAL FULLSPACE
 QS| Number of grid levels:                                                    4
 QS| Density cutoff [a.u.]:                                                250.0
 QS| Multi grid cutoff [a.u.]: 1) grid level                               250.0
 QS|                           2) grid level                                83.3
 QS|                           3) grid level                                27.8
 QS|                           4) grid level                                 9.3
 QS| Grid level progression factor:                                          3.0
 QS| Relative density cutoff [a.u.]:                                        50.0
 QS| Interaction thresholds: eps_pgf_orb:                                1.0E-12
 QS|                         eps_filter_matrix:                          0.0E+00
 QS|                         eps_core_charge:                            1.0E-14
 QS|                         eps_rho_gspace:                             1.0E-12
 QS|                         eps_rho_rspace:                             1.0E-12
 QS|                         eps_gvg_rspace:                             1.0E-06
 QS|                         eps_ppl:                                    1.0E-02
 QS|                         eps_ppnl:                                   1.0E-08
 QS| GAPW|      One center basis from orbital basis primitives
 QS| GAPW|                   eps_fit:                                    1.0E-04
 QS| GAPW|                   eps_iso:                                    1.0E-12
 QS| GAPW|                   eps_svd:                                    1.0E-08
 QS| GAPW|                   eps_cpc:                                    1.0E-12
 QS| GAPW|   atom-r-grid: quadrature:                                     GC_LOG
 QS| GAPW|      atom-s-grid:  max l :                                          6
 QS| GAPW|      max_l_rho0 :                                                   2
 QS| GAPW|      At least one kind is NOT PAW, i.e. it has only soft AO 
 QS| GAPW|      The NOT PAW atoms are treated fully GPW


 ATOMIC KIND INFORMATION

  1. Atomic kind: Mo                                    Number of atoms:       1

     Orbital Basis Set                                       TZV2P-MOLOPT-SR-GTH

       Number of orbital shell sets:                                           1
       Number of orbital shells:                                              12
       Number of primitive Cartesian functions:                                7
       Number of Cartesian basis functions:                                   51
       Number of spherical basis functions:                                   42
       Norm type:                                                              2

       Normalised Cartesian orbitals:

                        Set   Shell   Orbital            Exponent    Coefficient

                          1       1    2s                2.540273      -1.321231
                                                         1.999996       0.386074
                                                         0.894040       0.632184
                                                         0.439257       0.196926
                                                         0.189498       0.017023
                                                         0.083802      -0.027705
                                                         0.052949      -0.026613

                          1       2    3s                2.540273       0.226721
                                                         1.999996      -0.073158
                                                         0.894040      -0.053559
                                                         0.439257       0.091291
                                                         0.189498      -0.109922
                                                         0.083802      -0.065996
                                                         0.052949      -0.004390

                          1       3    4s                2.540273       0.151037
                                                         1.999996      -0.934259
                                                         0.894040       0.277268
                                                         0.439257      -0.018911
                                                         0.189498       0.203898
                                                         0.083802      -0.107599
                                                         0.052949       0.083646

                          1       4    5s                2.540273      -0.119990
                                                         1.999996       0.896807
                                                         0.894040       0.455473
                                                         0.439257      -0.443578
                                                         0.189498      -0.167165
                                                         0.083802      -0.001095
                                                         0.052949       0.077321

                          1       5    3px               2.540273       2.622682
                                                         1.999996      -2.341890
                                                         0.894040      -0.583031
                                                         0.439257      -0.176984
                                                         0.189498      -0.015780
                                                         0.083802      -0.000908
                                                         0.052949      -0.000447
                          1       5    3py               2.540273       2.622682
                                                         1.999996      -2.341890
                                                         0.894040      -0.583031
                                                         0.439257      -0.176984
                                                         0.189498      -0.015780
                                                         0.083802      -0.000908
                                                         0.052949      -0.000447
                          1       5    3pz               2.540273       2.622682
                                                         1.999996      -2.341890
                                                         0.894040      -0.583031
                                                         0.439257      -0.176984
                                                         0.189498      -0.015780
                                                         0.083802      -0.000908
                                                         0.052949      -0.000447

                          1       6    4px               2.540273      -0.260015
                                                         1.999996       0.590944
                                                         0.894040      -0.043681
                                                         0.439257      -0.117520
                                                         0.189498      -0.105390
                                                         0.083802      -0.009391
                                                         0.052949      -0.005803
                          1       6    4py               2.540273      -0.260015
                                                         1.999996       0.590944
                                                         0.894040      -0.043681
                                                         0.439257      -0.117520
                                                         0.189498      -0.105390
                                                         0.083802      -0.009391
                                                         0.052949      -0.005803
                          1       6    4pz               2.540273      -0.260015
                                                         1.999996       0.590944
                                                         0.894040      -0.043681
                                                         0.439257      -0.117520
                                                         0.189498      -0.105390
                                                         0.083802      -0.009391
                                                         0.052949      -0.005803

                          1       7    5px               2.540273      -0.353254
                                                         1.999996       0.905805
                                                         0.894040       0.246303
                                                         0.439257      -0.518036
                                                         0.189498       0.039707
                                                         0.083802      -0.012470
                                                         0.052949       0.039500
                          1       7    5py               2.540273      -0.353254
                                                         1.999996       0.905805
                                                         0.894040       0.246303
                                                         0.439257      -0.518036
                                                         0.189498       0.039707
                                                         0.083802      -0.012470
                                                         0.052949       0.039500
                          1       7    5pz               2.540273      -0.353254
                                                         1.999996       0.905805
                                                         0.894040       0.246303
                                                         0.439257      -0.518036
                                                         0.189498       0.039707
                                                         0.083802      -0.012470
                                                         0.052949       0.039500

                          1       8    4dx2              2.540273      -1.497042
                                                         1.999996       1.923448
                                                         0.894040       0.383738
                                                         0.439257       0.135280
                                                         0.189498       0.028294
                                                         0.083802       0.001439
                                                         0.052949       0.000783
                          1       8    4dxy              2.540273      -2.592953
                                                         1.999996       3.331510
                                                         0.894040       0.664653
                                                         0.439257       0.234311
                                                         0.189498       0.049007
                                                         0.083802       0.002493
                                                         0.052949       0.001357
                          1       8    4dxz              2.540273      -2.592953
                                                         1.999996       3.331510
                                                         0.894040       0.664653
                                                         0.439257       0.234311
                                                         0.189498       0.049007
                                                         0.083802       0.002493
                                                         0.052949       0.001357
                          1       8    4dy2              2.540273      -1.497042
                                                         1.999996       1.923448
                                                         0.894040       0.383738
                                                         0.439257       0.135280
                                                         0.189498       0.028294
                                                         0.083802       0.001439
                                                         0.052949       0.000783
                          1       8    4dyz              2.540273      -2.592953
                                                         1.999996       3.331510
                                                         0.894040       0.664653
                                                         0.439257       0.234311
                                                         0.189498       0.049007
                                                         0.083802       0.002493
                                                         0.052949       0.001357
[...]
 J. Chem. Phys. 152, 194103 (2020).
 CP2K: An electronic structure and molecular dynamics software package - 
 Quickstep: Efficient and accurate electronic structure calculations.
 https://doi.org/10.1063/5.0007045

 A. Togo, I. Tanaka.
 arXiv, 1808.01590 (2018).
 Spglib : a software library for crystal symmetry search.

 O. Schuett, P. Messmer, J. Hutter, J. VandeVondele.
 Electronic Structure Calculations on Graphics Processing Units, 173-190 (2016).
 GPU-Accelerated Sparse Matrix-Matrix Multiplication for Linear Scaling Density 
 Functional Theory.
 https://doi.org/10.1002/9781118670712.ch8

 A. Heinecke, G. Henry, M. Hutchinson, H. Pabst.
 Proceedings of Intl. Supercomputing Conference, 981-991 (2016).
 LIBXSMM: Accelerating Small Matrix Multiplications by Runtime Code Generation.
 https://doi.org/10.1109/SC.2016.83

 J. Hutter, M. Iannuzzi, F. Schiffmann, J. VandeVondele.
 WIREs Comput Mol Sci. 4, 15-25 (2014).
 CP2K: atomistic simulations of condensed matter systems.
 https://doi.org/10.1002/wcms.1159

 U. Borstnik, J. VandeVondele, V. Weber, J. Hutter.
 Parallel Comput. 40, 47-58 (2014).
 Sparse matrix multiplication: The distributed block-compressed sparse row 
 library.
 https://doi.org/10.1016/j.parco.2014.03.012

 A. Marek, V. Blum, R. Johanni, V. Havu, B. Lang, T. Auckenthaler, A. Heinecke, 
 H. Bungartz, H. Lederer.
 J. Phys. Condens. Matter 26, 213201 (2014).
 The ELPA library: scalable parallel eigenvalue solutions for electronic 
 structure theory and computational science.
 https://doi.org/10.1088/0953-8984/26/21/213201

 J. VandeVondele, J. Hutter.
 J. Chem. Phys. 127, 114105 (2007).
 Gaussian basis sets for accurate calculations on molecular systems in gas and 
 condensed phases.
 https://doi.org/10.1063/1.2770708

 M. Krack.
 Theor. Chem. Acc. 114, 145-152 (2005).
 Pseudopotentials for H to Kr optimized for gradient-corrected 
 exchange-correlation functionals.
 https://doi.org/10.1007/s00214-005-0655-y

 M. Frigo, S. G. Johnson.
 Proc. IEEE 93, 216-231 (2005).
 The design and implementation of FFTW3.
 https://doi.org/10.1109/JPROC.2004.840301

 M. Krack, M. Parrinello.
 Phys. Chem. Chem. Phys. 2, 2105-2112 (2000).
 All-electron ab-initio molecular dynamics.
 https://doi.org/10.1039/b001167n

 G. Lippert, J. Hutter, M. Parrinello.
 Theor. Chem. Acc. 103, 124-140 (1999).
 The Gaussian and augmented-plane-wave density functional method for ab initio 
 molecular dynamics simulations.
 https://doi.org/10.1007/s002140050523

 C. Hartwigsen, S. Goedecker, J. Hutter.
 Phys. Rev. B 58, 3641-3662 (1998).
 Relativistic separable dual-space Gaussian pseudopotentials from H to Rn.
 https://doi.org/10.1103/PhysRevB.58.3641

 S. Goedecker, M. Teter, J. Hutter.
 Phys. Rev. B 54, 1703-1710 (1996).
 Separable dual-space Gaussian pseudopotentials.
 https://doi.org/10.1103/PhysRevB.54.1703

 J. P. Perdew, K. Burke, M. Ernzerhof.
 Phys. Rev. Lett. 77, 3865-3868 (1996).
 Generalized gradient approximation made simple.
 https://doi.org/10.1103/PhysRevLett.77.3865


 -------------------------------------------------------------------------------
 -                                                                             -
 -                                T I M I N G                                  -
 -                                                                             -
 -------------------------------------------------------------------------------
 SUBROUTINE                       CALLS  ASD         SELF TIME        TOTAL TIME
                                MAXIMUM       AVERAGE  MAXIMUM  AVERAGE  MAXIMUM
 CP2K                                 1  1.0     0.06     0.82 37191.51 37192.77
 qs_energies                          1  2.0     0.00     0.02 37189.79 37191.05
 qs_energies_properties               1  3.0     0.00     0.00 37146.76 37148.02
 post_scf_bandstructure               1  4.0     0.00     0.02 37146.76 37148.02
 gw                                   1  5.0     0.01     0.01 36907.51 36908.76
 gw_calc_small_cell_full_kp           1  6.0     0.03     0.45 36446.87 36448.13
 dbt_total                      *******  9.9    59.31    66.04 23217.30 24798.30
 dbt_contract                   ******* 10.6    88.99    99.42 17933.21 19598.48
 dbt_tas_multiply               8974294 13.0     8.76    10.35 16698.48 18575.88
 dbt_tas_total                  8974294 14.0   398.22   434.75 16443.66 18105.90
 compute_Sigma_c                      1  7.0     0.00     0.00 15718.31 15718.86
 compute_chi                          1  7.0     0.09     0.12 11829.27 11829.68
 mp_sync                        ******* 11.8  8036.96 11541.21  8036.96 11541.21
 dbt_tas_dbm                    8974294 15.0     7.90     8.98  8574.85 10157.76
 dbm_multiply                   8974294 17.0  6254.36  9414.06  6254.36  9414.06
 contract_to_Sigma                  671  8.0    71.85    77.94  7433.34  8490.86
 compute_W_real_space                 1  7.0    13.11    13.87  7968.35  7968.66
 contract_M_occ_vir_to_chi          330  8.0   132.24   150.43  6038.47  6604.47
 compute_Minv_and_Vsqrt               1  8.0     0.13     0.45  6603.73  6603.95
 build_2c_coulomb_matrix_kp_sma       2  9.0    17.02    55.71  6586.37  6586.64
 contract_W                         341  8.0    13.99    15.03  5919.42  6428.50
 dbt_copy                       ******* 11.1    61.80    67.25  4955.27  5984.23
 build_2c_coulomb_matrix_kp_sma  829440 10.0  5285.62  5413.40  5285.62  5413.40
 contract_to_Sigma_3c_x_G       8747705  9.0     9.80    10.61  4582.00  5083.07
 dbt_reshape                    ******* 12.0  2461.55  3287.04  3943.05  4813.06
 G_times_3c                       37320  8.0    16.82    17.85  4307.02  4510.69
 dbt_tas_mm_3T                  3750896 16.2     2.39     2.95  2207.67  4273.05
 dbt_tas_mm_2                   2916948 16.1     3.45     4.10  3631.65  4104.63
 dbt_tas_estimate_result_nze    4487147 13.5   931.21  1343.59  3473.37  3557.79
 contract_to_Sigma_contract       37942  9.0    19.61    20.86  2744.62  3303.33
 get_t_3c_int                   *******  9.6    35.29    37.85  2821.12  3271.83
 mp_waitall_2                   ******* 17.5  1471.33  1926.19  1471.33  1926.19
 reshape_mm_small               8974294 15.0   543.41   600.69  1511.86  1604.11
 dbt_communicate_buffer         ******* 13.0    16.09    20.19  1166.22  1567.57
 dbt_tas_mm_1N                  2463702 15.5     1.33     1.51  1011.73  1540.74
 dbt_tas_create_split           ******* 16.0    16.77    18.60  1154.41  1277.27
 dbt_tas_create_split_rows_or_c ******* 17.0    59.35    63.86  1137.64  1260.73
 dbt_remap                       609951 11.0    59.31    83.56   935.10  1226.78
 dbcsr_complete_redistribute     365395 10.5     7.79    18.25   882.18  1224.54
 fm_to_local_tensor              186200  9.0     4.25     4.42   897.82  1161.07
 reshape_mm_compatible          8974294 15.0    80.62    94.04  1065.30  1127.26
 G_occ_vir                          121  8.0     0.35     0.43   988.88   990.36
 dbt_tas_distribution_new       ******* 15.8   407.62   421.00   875.87   975.02
 dbt_tas_reshape                ******* 15.5    47.48    51.36   823.38   970.54
 change_split                   ******* 15.5    29.10    32.37   872.10   929.29
 convert_to_new_pgrid           ******* 15.0    98.48   103.73   661.63   869.45
 dbt_tas_copy                   9611519 12.9   490.74   659.92   659.32   864.52
 copy_dbcsr_to_fm                176121  9.1     1.13     1.20   821.16   827.40
 copy_fm_to_dbcsr                189274 10.0     0.37     0.40   480.50   822.71
 dbm_copy                       ******* 16.0   563.14   771.18   563.14   771.18
 dbt_tas_reserve_blocks_index   ******* 15.7    34.37    38.83   571.24   730.44
 dbm_reserve_blocks             ******* 16.6   568.17   729.17   568.17   729.17
 parallel_gemm_cfm               350312  8.9     0.20     0.24   651.62   713.46
 parallel_gemm_cfm_cosma         350312  9.9   651.42   713.26   651.42   713.26
 dbt_tas_replicate              8974294 15.0   197.70   234.19   630.25   688.83
 mp_alltoall_i22                 564028 11.3   343.69   685.33   343.69   685.33
 dbt_copy_nocomm                2539080 11.0   358.58   578.98   442.72   682.09
 add_V_L                         414720 10.0     6.62   638.14     6.62   638.14
 mp_cart_create                 ******* 16.8   446.38   593.67   469.82   615.16
 fm_to_local_array                  934  8.1   134.32   136.24   601.52   603.98
 local_dbt_to_global_fm              91  8.0     0.19     0.20   601.18   601.23
 mp_comm_dup                    ******* 18.6   425.80   536.64   437.99   549.03
 compute_Sigma_x                      1  7.0     0.01     0.01   526.33   526.38
 dbt_tas_communicate_buffer     ******* 17.3    58.07    69.56   448.33   515.92
 mp_sum_dm                       829441 10.0   452.13   488.89   452.13   488.89
 mp_sum_dm3                         997  9.0   458.28   484.10   458.28   484.10
 mp_alltoall_d11v               1692084 11.6   477.10   479.80   477.10   479.80
 dbcsr_desymmetrize_deep         198633  9.8     2.17     3.17   470.70   477.81
 create_and_init_bs_env_for_gw        1  6.0     0.01     0.02   460.63   460.66
 dbm_filter                     ******* 14.9   287.72   460.24   287.72   460.24
 mp_alltoall_i11v               1294818 11.4   452.14   452.23   452.14   452.23
 dbt_reserve_blocks_index_array ******* 13.0    10.15    11.96   345.09   447.68
 dbt_reserve_blocks_index       ******* 14.0    14.11    16.76   340.03   444.72
 global_matrix_to_local_matrix   186200 10.0     3.18     7.66   363.18   420.08
 mp_sum_l                       ******* 15.2   303.31   419.19   303.31   419.19
 compute_QP_energies                  1  7.0     0.04     0.05   404.57   404.62
 trafo_to_k_and_nn                88084  8.0     0.36     0.43   403.35   403.41
 mp_comm_split_direct           ******* 18.0   334.43   348.60   342.01   356.42
 mp_waitall_1                    786234 12.9   290.09   349.05   290.09   349.05
 compute_3c_integrals                 1  7.0     0.05     0.05   341.81   341.86
 dbt_tas_reshape_communicate_bu ******* 16.5     8.11     8.84   267.41   341.84
 build_3c_integrals                   1  8.0   183.34   331.98   189.07   340.54
 dbt_tas_reshape_buffer_obtain  ******* 16.5   169.27   242.05   241.58   326.87
 mp_sum_dv                        96759  8.9    46.35   326.73    46.35   326.73
 send_data                       186200 11.0     0.15     0.20   236.89   294.43
 communicate_buffer              186200 12.0     0.90    37.99   236.74   294.27
 fm_MWM_R_t_to_local_tensor_W_R      30  8.0     0.03     0.04   284.10   284.15
 dbt_tas_reserve_blocks_templat ******* 14.2    26.84    30.26   204.70   276.41
 add_rs_to_ikp                  ******* 10.0   257.76   270.30   257.76   270.30
 mp_alltoall_i                  ******* 14.9   188.29   265.11   188.29   265.11
 dbt_tas_reshape_buffer_fill    ******* 16.5   208.61   262.12   208.61   262.12
 mult_W_with_Minv                    30  8.0     1.77     1.97   255.75   255.96
 get_V_tr_R                          34  9.0     0.16     0.51   250.20   251.19
 trafo_rs_to_ikp                   4568  8.1     2.69     2.96   238.68   248.18
 add_ikp_to_rs                  ******* 10.0   211.95   240.33   211.95   240.33
 add_ikp_to_all_rs                 4174  8.0     2.17     2.36   184.92   211.36
 dbt_create_matrix               186200 10.0     1.13     1.30    37.50   208.13
 dbt_tas_replicate_communicate_ 6205322 15.9     5.96     7.21   177.27   203.18
 dbt_pgrid_create_expert        1592315 13.3     2.66     3.44    32.85   202.28
 dbt_nd_mp_comm                  796151 11.8     1.91     2.47    22.50   191.88
 dbt_tas_create_new             ******* 15.3   171.28   185.71   171.28   185.71
 hybrid_alltoall_any             198633 10.8     0.67     0.72   174.88   176.02
 dbt_permute_index              ******* 12.2   118.93   131.27   136.41   151.83
 dbt_tas_mp_comm                5078610 13.2    10.71    11.66   139.59   148.64
 mp_comm_free                   ******* 15.7   131.69   146.31   131.69   146.31
 dbt_tas_replicate_alltoall     6205322 15.9     3.44     3.93    71.46   139.02
 local_dbt_to_global_mat         111475  9.0     0.40     0.42    98.53   138.43
 get_data                        186200 11.0     8.08   132.30     8.37   132.69
 dbm_add                        8974294 15.0   103.80   131.04   103.80   131.04
 add_R                          *******  9.3    76.35    83.64   107.94   122.44
 rsmat_to_kp                       8664  7.2     0.06     0.07   116.50   117.17
 mp_sum_i                       7977574 15.9   110.61   113.27   110.61   113.27
 dos_pdos_ldos                        1  5.0     0.00     0.01   112.05   112.18
 dbt_distribution_new_expert    1592312 12.3     9.93    11.09    86.87   110.35
 dbt_reserve_blocks_template    2539080 12.0     3.59     4.67    84.14   103.46
 SOC_ev                            2888  6.0     0.02     0.03    99.12    99.24
 send_sizes_1                    186200 11.0     0.11     0.13    97.76    98.60
 dbt_align_index                ******* 11.5    14.75    16.73    88.41    98.51
 dbt_tas_merge                  2916948 15.1    44.82    49.46    85.56    94.73
 fm_add_ikp_to_rs                156816  9.0    58.08    60.07    87.29    92.76
 cp_cfm_heevd                      5830  7.5    91.37    91.70    91.37    91.70
 power                             8629  8.0    86.42    87.62    86.42    87.62
 local_matrix_to_global_matrix   111475 10.0     0.20     0.23    35.81    76.17
 reshape_mm_template            1219902 15.5    40.47    48.12    65.94    72.89
 create_and_init_bs_env               1  5.0     0.00     0.00    70.08    70.09
 compute_cfm_mo_coeff_kp_and_ei       1  6.0     0.00     0.00    70.05    70.05
 mp_max_i                       ******* 11.6    63.89    69.20    63.89    69.20
 compute_V_xc                         1  7.0     0.00     0.00    63.65    63.67
 is_cell_in_index_to_cell       ******* -3.2    53.76    62.50    53.76    62.50
 fm_trafo_rs_to_ikp               88084  9.0    33.17    34.98    54.94    60.70
 mp_cart_get                    ******* -7.9    50.06    59.27    50.06    59.27
 qs_ks_build_kohn_sham_matrix         5  7.6     0.00     0.01    54.76    57.31
 transfer_pw2rs                      26 11.0     0.00     0.00    54.64    57.20
 transfer_pw2rs_250                  11 11.3     0.01     0.01    54.62    57.18
 integrate_vhg0_rspace                5  8.6     0.00     0.00    54.60    57.16
 soc                                  1  5.0     0.00     0.00    57.12    57.12
 H_KS_spinor_kp                       1  6.0     0.01     0.01    57.09    57.10
 dbt_destroy                    ******* 11.3    42.21    51.60    45.86    55.95
 mp_isend_dv                    ******* 17.6    31.84    50.92    31.84    50.92
 mp_comm_size                   ******* -2.7    40.50    46.93    40.50    46.93
 dbt_create_new                  796156 11.8     7.26     8.56    41.95    44.09
 dbt_tas_reshape_alltoall       ******* 16.5     5.85     6.98    36.35    43.41
 scf_env_do_scf                       1  3.0     0.00     0.00    42.04    42.04
 scf_env_do_scf_inner_loop            2  4.0     0.00     0.00    42.04    42.04
 qs_scf_new_mos_kp                    2  5.0     0.00     0.00    41.33    41.33
 do_general_diag_kp                   2  6.0     0.01     0.01    41.33    41.33
 mp_comm_rank                   ******* -2.7    30.77    37.95    30.77    37.95
 mp_bcast_i                     ******* 18.0    29.51    37.22    29.51    37.22
 mp_cart_sub                     352321 11.1    33.04    33.14    33.04    33.14
 cp_cfm_geeig_canon                1444  7.0     0.01     0.01    29.05    29.10
 dbt_create_3c_R1_R2                 62  8.0     3.12     3.26    27.11    28.96
 dbt_create_template            3819523  9.0    26.49    28.44    26.49    28.44
 get_Minv_Vtr_Minv_R                  1  8.0     0.07     0.09    27.12    27.16
 trafo_V_xc_R_to_kp                   1  7.0     0.01     0.01    26.41    26.43
 dbt_tas_merge_communicate_buff 2916948 16.1     2.43     2.83    20.15    25.95
 destroy_t_2d                        62  8.0     4.34     4.93    21.67    23.87
 comm_size                       111475 11.0     0.12     0.13    22.81    23.29
 set_blocks                      111475 11.0     2.98    15.89     5.81    22.36
 dbcsr_finalize                 1810836 11.7     3.41     5.88    16.32    22.18
 dbt_tas_reshape_get_coord      ******* 16.5    19.00    20.98    19.00    20.98
 dbm_scale                      ******* 13.1    18.46    20.21    18.46    20.21
 comm_data                       111475 11.0     0.21     2.73     0.75    19.25
 mp_isend_im2                   ******* 13.9     4.16    17.41     4.16    17.41
 dbcsr_filter_anytype            824887 11.0     1.86     2.00    10.59    16.61
 mp_isend_lm2                   ******* 18.2    11.81    15.80    11.81    15.80
 rskp_transform                   11256  7.9     0.07    15.47     0.07    15.47
 heuristic_RI_regularization          1  7.0     0.00     0.00    14.62    14.62
 build_2c_integrals                  34 10.0     0.07     7.00     0.18    14.46
 dbt_tas_merge_alltoall         2916948 16.1     2.37     2.81    11.24    13.51
 send_sizes_2                    186200 11.0     0.11     0.12    11.52    12.06
 compute_proj_mo_on_kind           1444  6.0     0.02     0.03    11.62    11.78
 mp_irecv_lm2                   ******* 18.2     9.93    11.59     9.93    11.59
 dbt_buffer_get_index           ******* 16.8     9.39    11.11     9.39    11.11
 mp_dims_create                 ******* 14.3     9.41    11.05     9.41    11.05
 setup_cells_3c                       1  7.0     0.31     0.32    10.76    10.77
 mp_irecv_dv                    ******* 17.6     8.47    10.76     8.47    10.76
 build_3c_integral_block           4887  8.0     2.12     2.53     9.15    10.44
 dbcsr_merge_all                 661673 12.4     5.94     7.72     8.27    10.04
 mp_cart_rank                   ******* 15.9     4.54     9.63     4.54     9.63
 fill_buffer                     111475 11.0     4.02     8.85     4.19     9.03
 abc_contract_xsmm                30080  9.0     6.81     7.97     6.81     7.97
 dbt_distribution_destroy       1592312 12.3     4.80     5.95     6.00     7.25
 kpoint_density_transform             2  7.0     0.00     0.01     7.15     7.16
 dbcsr_create_new               1151364 11.0     3.87     4.33     5.64     6.19
 alloc_block_3c                       1  9.0     0.07     0.10     4.19     6.08
 ab_contract                    8665234 11.0     0.03     6.01     0.03     6.01
 mp_irecv_im2                   9750304 13.9     3.77     5.30     3.77     5.30
 dbcsr_work_create               860306 11.5     2.66     3.35     3.80     4.63
 dbcsr_iterator_start           3556739 11.7     3.53     3.66     4.16     4.37
 copy_fm_to_dbcsr_bc             189274 11.0     1.19     1.25     4.04     4.23
 reserve_blocks                  186200 11.0     0.49     0.54     3.67     4.03
 dbt_copy_matrix_to_tensor       186200 10.0     1.14     1.75     3.39     4.03
 dbcsr_set                      1507505 11.1     0.76     0.84     3.40     4.02
 dbcsr_reserve_blocks            660788 12.3     1.42     3.38     1.68     3.78
 -------------------------------------------------------------------------------

 The number of warnings for this run is : 1
 
 -------------------------------------------------------------------------------
  **** **** ******  **  PROGRAM ENDED AT                 2024-10-15 06:50:51.169
 ***** ** ***  *** **   PROGRAM RAN ON                                 n2lcn0101
 **    ****   ******    PROGRAM RAN BY                                  metdyn02
 ***** **    ** ** **   PROGRAM PROCESS ID                               2892357
  **** **  *******  **  PROGRAM STOPPED IN /scratch/hpc-prf-metdyn/metdyn02_Remi
                                           /03_TMD/01_MoS2/01
