 DBCSR| CPU Multiplication driver                                           XSMM (U)
 DBCSR| Multrec recursion limit                                              512 (U)
 DBCSR| Multiplication stack size                                           1000 (D)
 DBCSR| Maximum elements for images                                    UNLIMITED (U)
 DBCSR| Multiplicative factor virtual images                                   1 (U)
 DBCSR| Use multiplication densification                                       T (D)
 DBCSR| Multiplication size stacks                                             3 (U)
 DBCSR| Use memory pool for CPU allocation                                     F (U)
 DBCSR| Number of 3D layers                                               SINGLE (U)
 DBCSR| Use MPI memory allocation                                              F (U)
 DBCSR| Use RMA algorithm                                                      F (U)
 DBCSR| Use Communication thread                                               T (U)
 DBCSR| Communication thread load                                             60 (D)
 DBCSR| MPI: My process id                                                     0
 DBCSR| MPI: Number of processes                                             256
 DBCSR| OMP: Current number of threads                                         8
 DBCSR| OMP: Max number of threads                                             8
 DBCSR| Split modifier for TAS multiplication algorithm                  1.0E+00 (U)


  **** **** ******  **  PROGRAM STARTED AT               2025-07-15 11:15:20.407
 ***** ** ***  *** **   PROGRAM STARTED ON                              n2cn0715
 **    ****   ******    PROGRAM STARTED BY                              metdyn02
 ***** **    ** ** **   PROGRAM PROCESS ID                               4123802
  **** **  *******  **  PROGRAM STARTED IN /scratch/hpc-prf-metdyn/metdyn02_Remi
                                           /05_TMD_new/1_MoS2_/SZVnonaug

 CP2K| version string:                 CP2K version 2025.1 (Development Version)
 CP2K| source code revision number:                                  git:400017f
 CP2K| cp2kflags: omp libint fftw3 libxc libgrpp elpa parallel scalapack mpi_f08
 CP2K|             cosma xsmm plumed2 spglib libvori libbqb libvdwxc hdf5
 CP2K| is freely available from                            https://www.cp2k.org/
 CP2K| Program compiled at                         Thu Jun 26 12:02:16 CEST 2025
 CP2K| Program compiled on                                              n2login1
 CP2K| Program compiled for                                                local
 CP2K| Data directory path    /opt/software/pc2/EB-SW/software/CP2K/2024.1-foss-
 CP2K| Input file name                                                    GW.inp

 GLOBAL| Force Environment number                                              1
 GLOBAL| Basis set file name                                        BASIS_MOLOPT
 GLOBAL| Potential file name            /pc2/groups/hpc-prf-metdyn/metdyn02_Remi
 GLOBAL| MM Potential file name                                     MM_POTENTIAL
 GLOBAL| Coordinate file name                                      __STD_INPUT__
 GLOBAL| Method name                                                        CP2K
 GLOBAL| Project name                                                       MoS2
 GLOBAL| Run type                                                         ENERGY
 GLOBAL| FFT library                                                       FFTW3
 GLOBAL| Diagonalization library                                            ELPA
 GLOBAL| Cholesky decomposition library                                ScaLAPACK
 GLOBAL| DGEMM library                                                      BLAS
 GLOBAL| Minimum number of eigenvectors for ELPA usage                        16
 GLOBAL| Orthonormality check for eigenvectors                          DISABLED
 GLOBAL| Matrix multiplication library                                     COSMA
 GLOBAL| All-to-all communication in single precision                          F
 GLOBAL| FFTs using library dependent lengths                                  F
 GLOBAL| Grid backend                                                       AUTO
 GLOBAL| Global print level                                               MEDIUM
 GLOBAL| MPI I/O enabled                                                       T
 GLOBAL| Total number of message passing processes                           256
 GLOBAL| Number of threads for this process                                    8
 GLOBAL| This output is from process                                           0
 GLOBAL| OpenMP stack size per thread (OMP_STACKSIZE)                    default
 GLOBAL| CPU model name                          AMD EPYC 7763 64-Core Processor
 GLOBAL| CPUID                                                              1002

 MEMORY| system memory details [Kb]
 MEMORY|                        rank 0           min           max       average
 MEMORY| MemTotal            263897608     263897556     263899980     263897747
 MEMORY| MemFree             243035620     239114856     245941960     243466129
 MEMORY| Buffers                 65204         16572        175640         85060
 MEMORY| Cached               12643104      10157528      16584668      12240989
 MEMORY| Slab                  2326976       1835040       2917888       2264705
 MEMORY| SReclaimable           743212        476980       1484868        761491
 MEMORY| MemLikelyFree       256487140     256309104     256781452     256553669


 *** Fundamental physical constants (SI units) ***

 *** Literature: B. J. Mohr and B. N. Taylor,
 ***             CODATA recommended values of the fundamental physical
 ***             constants: 2006, Web Version 5.1
 ***             http://physics.nist.gov/constants

 Speed of light in vacuum [m/s]                             2.99792458000000E+08
 Magnetic constant or permeability of vacuum [N/A**2]       1.25663706143592E-06
 Electric constant or permittivity of vacuum [F/m]          8.85418781762039E-12
 Planck constant (h) [J*s]                                  6.62606896000000E-34
 Planck constant (h-bar) [J*s]                              1.05457162825177E-34
 Elementary charge [C]                                      1.60217648700000E-19
 Electron mass [kg]                                         9.10938215000000E-31
 Electron g factor [ ]                                     -2.00231930436220E+00
 Proton mass [kg]                                           1.67262163700000E-27
 Fine-structure constant                                    7.29735253760000E-03
 Rydberg constant [1/m]                                     1.09737315685270E+07
 Avogadro constant [1/mol]                                  6.02214179000000E+23
 Boltzmann constant [J/K]                                   1.38065040000000E-23
 Atomic mass unit [kg]                                      1.66053878200000E-27
 Bohr radius [m]                                            5.29177208590000E-11

 *** Conversion factors ***

 [u] -> [a.u.]                                              1.82288848426455E+03
 [Angstrom] -> [Bohr] = [a.u.]                              1.88972613288564E+00
 [a.u.] = [Bohr] -> [Angstrom]                              5.29177208590000E-01
 [a.u.] -> [s]                                              2.41888432650478E-17
 [a.u.] -> [fs]                                             2.41888432650478E-02
 [a.u.] -> [J]                                              4.35974393937059E-18
 [a.u.] -> [N]                                              8.23872205491840E-08
 [a.u.] -> [K]                                              3.15774647902944E+05
 [a.u.] -> [kJ/mol]                                         2.62549961709828E+03
 [a.u.] -> [kcal/mol]                                       6.27509468713739E+02
 [a.u.] -> [Pa]                                             2.94210107994716E+13
 [a.u.] -> [bar]                                            2.94210107994716E+08
 [a.u.] -> [atm]                                            2.90362800883016E+08
 [a.u.] -> [eV]                                             2.72113838565563E+01
 [a.u.] -> [Hz]                                             6.57968392072181E+15
 [a.u.] -> [1/cm] (wave numbers)                            2.19474631370540E+05
 [a.u./Bohr**2] -> [1/cm]                                   5.14048714338585E+03
 

 CELL_TOP| Volume [angstrom^3]:                                       131.694613
 CELL_TOP| Vector a [angstrom     3.184     0.000     0.000   |a| =     3.184000
 CELL_TOP| Vector b [angstrom    -1.592     2.757     0.000   |b| =     3.184000
 CELL_TOP| Vector c [angstrom     0.000     0.000    15.000   |c| =    15.000000
 CELL_TOP| Angle (b,c), alpha [degree]:                                90.000000
 CELL_TOP| Angle (a,c), beta  [degree]:                                90.000000
 CELL_TOP| Angle (a,b), gamma [degree]:                               120.000000
 CELL_TOP| Numerically orthorhombic:                                          NO
 CELL_TOP| Periodicity                                                        XY

 GENERATE|  Preliminary Number of Bonds generated:                             0
 GENERATE|  Achieved consistency in connectivity generation.

 CELL| Volume [angstrom^3]:                                           131.694613
 CELL| Vector a [angstrom]:       3.184     0.000     0.000   |a| =     3.184000
 CELL| Vector b [angstrom]:      -1.592     2.757     0.000   |b| =     3.184000
 CELL| Vector c [angstrom]:       0.000     0.000    15.000   |c| =    15.000000
 CELL| Angle (b,c), alpha [degree]:                                    90.000000
 CELL| Angle (a,c), beta  [degree]:                                    90.000000
 CELL| Angle (a,b), gamma [degree]:                                   120.000000
 CELL| Numerically orthorhombic:                                              NO
 CELL| Periodicity                                                            XY

 CELL_REF| Volume [angstrom^3]:                                       131.694613
 CELL_REF| Vector a [angstrom     3.184     0.000     0.000   |a| =     3.184000
 CELL_REF| Vector b [angstrom    -1.592     2.757     0.000   |b| =     3.184000
 CELL_REF| Vector c [angstrom     0.000     0.000    15.000   |c| =    15.000000
 CELL_REF| Angle (b,c), alpha [degree]:                                90.000000
 CELL_REF| Angle (a,c), beta  [degree]:                                90.000000
 CELL_REF| Angle (a,b), gamma [degree]:                               120.000000
 CELL_REF| Numerically orthorhombic:                                          NO
 CELL_REF| Periodicity                                                        XY

 *******************************************************************************
                                    Kpoints
 *******************************************************************************
 BRILLOUIN| K-point scheme                                        Monkhorst-Pack
 BRILLOUIN| K-Point grid                                            32   32    1
 BRILLOUIN| Accuracy in Symmetry determination                      0.100000E-05
 BRILLOUIN| K-Point point group symmetrization                               OFF
 BRILLOUIN| Wavefunction type                                            COMPLEX
 BRILLOUIN| List of Kpoints [2 Pi/Bohr]                                      512
 BRILLOUIN| Number           Weight            X              Y              Z
 BRILLOUIN|     1           0.00195       -0.48438       -0.48438        0.00000
 BRILLOUIN|     2           0.00195       -0.48438       -0.45312        0.00000
 BRILLOUIN|     3           0.00195       -0.48438       -0.42188        0.00000
 BRILLOUIN|     4           0.00195       -0.48438       -0.39062        0.00000
 BRILLOUIN|     5           0.00195       -0.48438       -0.35938        0.00000
 BRILLOUIN|     6           0.00195       -0.48438       -0.32812        0.00000
 BRILLOUIN|     7           0.00195       -0.48438       -0.29688        0.00000
 BRILLOUIN|     8           0.00195       -0.48438       -0.26562        0.00000
 BRILLOUIN|     9           0.00195       -0.48438       -0.23438        0.00000
 BRILLOUIN|    10           0.00195       -0.48438       -0.20312        0.00000
 BRILLOUIN|    11           0.00195       -0.48438       -0.17188        0.00000
 BRILLOUIN|    12           0.00195       -0.48438       -0.14062        0.00000
 BRILLOUIN|    13           0.00195       -0.48438       -0.10938        0.00000
 BRILLOUIN|    14           0.00195       -0.48438       -0.07812        0.00000
 BRILLOUIN|    15           0.00195       -0.48438       -0.04688        0.00000
 BRILLOUIN|    16           0.00195       -0.48438       -0.01562        0.00000
 BRILLOUIN|    17           0.00195       -0.48438        0.01562        0.00000
 BRILLOUIN|    18           0.00195       -0.48438        0.04688        0.00000
 BRILLOUIN|    19           0.00195       -0.48438        0.07812        0.00000
 BRILLOUIN|    20           0.00195       -0.48438        0.10938        0.00000
 BRILLOUIN|    21           0.00195       -0.48438        0.14062        0.00000
 BRILLOUIN|    22           0.00195       -0.48438        0.17188        0.00000
 BRILLOUIN|    23           0.00195       -0.48438        0.20312        0.00000
 BRILLOUIN|    24           0.00195       -0.48438        0.23438        0.00000
 BRILLOUIN|    25           0.00195       -0.48438        0.26562        0.00000
 BRILLOUIN|    26           0.00195       -0.48438        0.29688        0.00000
 BRILLOUIN|    27           0.00195       -0.48438        0.32812        0.00000
 BRILLOUIN|    28           0.00195       -0.48438        0.35938        0.00000
 BRILLOUIN|    29           0.00195       -0.48438        0.39062        0.00000
 BRILLOUIN|    30           0.00195       -0.48438        0.42188        0.00000
 BRILLOUIN|    31           0.00195       -0.48438        0.45312        0.00000
 BRILLOUIN|    32           0.00195       -0.48438        0.48438        0.00000
 BRILLOUIN|    33           0.00195       -0.45312       -0.48438        0.00000
 BRILLOUIN|    34           0.00195       -0.45312       -0.45312        0.00000
 BRILLOUIN|    35           0.00195       -0.45312       -0.42188        0.00000
 BRILLOUIN|    36           0.00195       -0.45312       -0.39062        0.00000
 BRILLOUIN|    37           0.00195       -0.45312       -0.35938        0.00000
 BRILLOUIN|    38           0.00195       -0.45312       -0.32812        0.00000
 BRILLOUIN|    39           0.00195       -0.45312       -0.29688        0.00000
 BRILLOUIN|    40           0.00195       -0.45312       -0.26562        0.00000
 BRILLOUIN|    41           0.00195       -0.45312       -0.23438        0.00000
 BRILLOUIN|    42           0.00195       -0.45312       -0.20312        0.00000
 BRILLOUIN|    43           0.00195       -0.45312       -0.17188        0.00000
 BRILLOUIN|    44           0.00195       -0.45312       -0.14062        0.00000
 BRILLOUIN|    45           0.00195       -0.45312       -0.10938        0.00000
 BRILLOUIN|    46           0.00195       -0.45312       -0.07812        0.00000
 BRILLOUIN|    47           0.00195       -0.45312       -0.04688        0.00000
 BRILLOUIN|    48           0.00195       -0.45312       -0.01562        0.00000
 BRILLOUIN|    49           0.00195       -0.45312        0.01562        0.00000
 BRILLOUIN|    50           0.00195       -0.45312        0.04688        0.00000
 BRILLOUIN|    51           0.00195       -0.45312        0.07812        0.00000
 BRILLOUIN|    52           0.00195       -0.45312        0.10938        0.00000
 BRILLOUIN|    53           0.00195       -0.45312        0.14062        0.00000
 BRILLOUIN|    54           0.00195       -0.45312        0.17188        0.00000
 BRILLOUIN|    55           0.00195       -0.45312        0.20312        0.00000
 BRILLOUIN|    56           0.00195       -0.45312        0.23438        0.00000
 BRILLOUIN|    57           0.00195       -0.45312        0.26562        0.00000
 BRILLOUIN|    58           0.00195       -0.45312        0.29688        0.00000
 BRILLOUIN|    59           0.00195       -0.45312        0.32812        0.00000
 BRILLOUIN|    60           0.00195       -0.45312        0.35938        0.00000
 BRILLOUIN|    61           0.00195       -0.45312        0.39062        0.00000
 BRILLOUIN|    62           0.00195       -0.45312        0.42188        0.00000
 BRILLOUIN|    63           0.00195       -0.45312        0.45312        0.00000
 BRILLOUIN|    64           0.00195       -0.45312        0.48438        0.00000
 BRILLOUIN|    65           0.00195       -0.42188       -0.48438        0.00000
 BRILLOUIN|    66           0.00195       -0.42188       -0.45312        0.00000
 BRILLOUIN|    67           0.00195       -0.42188       -0.42188        0.00000
 BRILLOUIN|    68           0.00195       -0.42188       -0.39062        0.00000
 BRILLOUIN|    69           0.00195       -0.42188       -0.35938        0.00000
 BRILLOUIN|    70           0.00195       -0.42188       -0.32812        0.00000
 BRILLOUIN|    71           0.00195       -0.42188       -0.29688        0.00000
 BRILLOUIN|    72           0.00195       -0.42188       -0.26562        0.00000
 BRILLOUIN|    73           0.00195       -0.42188       -0.23438        0.00000
 BRILLOUIN|    74           0.00195       -0.42188       -0.20312        0.00000
 BRILLOUIN|    75           0.00195       -0.42188       -0.17188        0.00000
 BRILLOUIN|    76           0.00195       -0.42188       -0.14062        0.00000
 BRILLOUIN|    77           0.00195       -0.42188       -0.10938        0.00000
 BRILLOUIN|    78           0.00195       -0.42188       -0.07812        0.00000
 BRILLOUIN|    79           0.00195       -0.42188       -0.04688        0.00000
 BRILLOUIN|    80           0.00195       -0.42188       -0.01562        0.00000
 BRILLOUIN|    81           0.00195       -0.42188        0.01562        0.00000
 BRILLOUIN|    82           0.00195       -0.42188        0.04688        0.00000
 BRILLOUIN|    83           0.00195       -0.42188        0.07812        0.00000
 BRILLOUIN|    84           0.00195       -0.42188        0.10938        0.00000
 BRILLOUIN|    85           0.00195       -0.42188        0.14062        0.00000
 BRILLOUIN|    86           0.00195       -0.42188        0.17188        0.00000
 BRILLOUIN|    87           0.00195       -0.42188        0.20312        0.00000
 BRILLOUIN|    88           0.00195       -0.42188        0.23438        0.00000
 BRILLOUIN|    89           0.00195       -0.42188        0.26562        0.00000
 BRILLOUIN|    90           0.00195       -0.42188        0.29688        0.00000
 BRILLOUIN|    91           0.00195       -0.42188        0.32812        0.00000
 BRILLOUIN|    92           0.00195       -0.42188        0.35938        0.00000
 BRILLOUIN|    93           0.00195       -0.42188        0.39062        0.00000
 BRILLOUIN|    94           0.00195       -0.42188        0.42188        0.00000
 BRILLOUIN|    95           0.00195       -0.42188        0.45312        0.00000
 BRILLOUIN|    96           0.00195       -0.42188        0.48438        0.00000
 BRILLOUIN|    97           0.00195       -0.39062       -0.48438        0.00000
 BRILLOUIN|    98           0.00195       -0.39062       -0.45312        0.00000
 BRILLOUIN|    99           0.00195       -0.39062       -0.42188        0.00000
 BRILLOUIN|   100           0.00195       -0.39062       -0.39062        0.00000
 BRILLOUIN|   101           0.00195       -0.39062       -0.35938        0.00000
 BRILLOUIN|   102           0.00195       -0.39062       -0.32812        0.00000
 BRILLOUIN|   103           0.00195       -0.39062       -0.29688        0.00000
 BRILLOUIN|   104           0.00195       -0.39062       -0.26562        0.00000
 BRILLOUIN|   105           0.00195       -0.39062       -0.23438        0.00000
 BRILLOUIN|   106           0.00195       -0.39062       -0.20312        0.00000
 BRILLOUIN|   107           0.00195       -0.39062       -0.17188        0.00000
 BRILLOUIN|   108           0.00195       -0.39062       -0.14062        0.00000
 BRILLOUIN|   109           0.00195       -0.39062       -0.10938        0.00000
 BRILLOUIN|   110           0.00195       -0.39062       -0.07812        0.00000
 BRILLOUIN|   111           0.00195       -0.39062       -0.04688        0.00000
 BRILLOUIN|   112           0.00195       -0.39062       -0.01562        0.00000
 BRILLOUIN|   113           0.00195       -0.39062        0.01562        0.00000
 BRILLOUIN|   114           0.00195       -0.39062        0.04688        0.00000
 BRILLOUIN|   115           0.00195       -0.39062        0.07812        0.00000
 BRILLOUIN|   116           0.00195       -0.39062        0.10938        0.00000
 BRILLOUIN|   117           0.00195       -0.39062        0.14062        0.00000
 BRILLOUIN|   118           0.00195       -0.39062        0.17188        0.00000
 BRILLOUIN|   119           0.00195       -0.39062        0.20312        0.00000
 BRILLOUIN|   120           0.00195       -0.39062        0.23438        0.00000
 BRILLOUIN|   121           0.00195       -0.39062        0.26562        0.00000
 BRILLOUIN|   122           0.00195       -0.39062        0.29688        0.00000
 BRILLOUIN|   123           0.00195       -0.39062        0.32812        0.00000
 BRILLOUIN|   124           0.00195       -0.39062        0.35938        0.00000
 BRILLOUIN|   125           0.00195       -0.39062        0.39062        0.00000
 BRILLOUIN|   126           0.00195       -0.39062        0.42188        0.00000
 BRILLOUIN|   127           0.00195       -0.39062        0.45312        0.00000
 BRILLOUIN|   128           0.00195       -0.39062        0.48438        0.00000
 BRILLOUIN|   129           0.00195       -0.35938       -0.48438        0.00000
 BRILLOUIN|   130           0.00195       -0.35938       -0.45312        0.00000
 BRILLOUIN|   131           0.00195       -0.35938       -0.42188        0.00000
 BRILLOUIN|   132           0.00195       -0.35938       -0.39062        0.00000
 BRILLOUIN|   133           0.00195       -0.35938       -0.35938        0.00000
 BRILLOUIN|   134           0.00195       -0.35938       -0.32812        0.00000
 BRILLOUIN|   135           0.00195       -0.35938       -0.29688        0.00000
 BRILLOUIN|   136           0.00195       -0.35938       -0.26562        0.00000
 BRILLOUIN|   137           0.00195       -0.35938       -0.23438        0.00000
 BRILLOUIN|   138           0.00195       -0.35938       -0.20312        0.00000
 BRILLOUIN|   139           0.00195       -0.35938       -0.17188        0.00000
 BRILLOUIN|   140           0.00195       -0.35938       -0.14062        0.00000
 BRILLOUIN|   141           0.00195       -0.35938       -0.10938        0.00000
 BRILLOUIN|   142           0.00195       -0.35938       -0.07812        0.00000
 BRILLOUIN|   143           0.00195       -0.35938       -0.04688        0.00000
 BRILLOUIN|   144           0.00195       -0.35938       -0.01562        0.00000
 BRILLOUIN|   145           0.00195       -0.35938        0.01562        0.00000
 BRILLOUIN|   146           0.00195       -0.35938        0.04688        0.00000
 BRILLOUIN|   147           0.00195       -0.35938        0.07812        0.00000
 BRILLOUIN|   148           0.00195       -0.35938        0.10938        0.00000
 BRILLOUIN|   149           0.00195       -0.35938        0.14062        0.00000
 BRILLOUIN|   150           0.00195       -0.35938        0.17188        0.00000
 BRILLOUIN|   151           0.00195       -0.35938        0.20312        0.00000
 BRILLOUIN|   152           0.00195       -0.35938        0.23438        0.00000
 BRILLOUIN|   153           0.00195       -0.35938        0.26562        0.00000
 BRILLOUIN|   154           0.00195       -0.35938        0.29688        0.00000
 BRILLOUIN|   155           0.00195       -0.35938        0.32812        0.00000
 BRILLOUIN|   156           0.00195       -0.35938        0.35938        0.00000
 BRILLOUIN|   157           0.00195       -0.35938        0.39062        0.00000
 BRILLOUIN|   158           0.00195       -0.35938        0.42188        0.00000
 BRILLOUIN|   159           0.00195       -0.35938        0.45312        0.00000
 BRILLOUIN|   160           0.00195       -0.35938        0.48438        0.00000
 BRILLOUIN|   161           0.00195       -0.32812       -0.48438        0.00000
 BRILLOUIN|   162           0.00195       -0.32812       -0.45312        0.00000
 BRILLOUIN|   163           0.00195       -0.32812       -0.42188        0.00000
 BRILLOUIN|   164           0.00195       -0.32812       -0.39062        0.00000
 BRILLOUIN|   165           0.00195       -0.32812       -0.35938        0.00000
 BRILLOUIN|   166           0.00195       -0.32812       -0.32812        0.00000
 BRILLOUIN|   167           0.00195       -0.32812       -0.29688        0.00000
 BRILLOUIN|   168           0.00195       -0.32812       -0.26562        0.00000
 BRILLOUIN|   169           0.00195       -0.32812       -0.23438        0.00000
 BRILLOUIN|   170           0.00195       -0.32812       -0.20312        0.00000
 BRILLOUIN|   171           0.00195       -0.32812       -0.17188        0.00000
 BRILLOUIN|   172           0.00195       -0.32812       -0.14062        0.00000
 BRILLOUIN|   173           0.00195       -0.32812       -0.10938        0.00000
 BRILLOUIN|   174           0.00195       -0.32812       -0.07812        0.00000
 BRILLOUIN|   175           0.00195       -0.32812       -0.04688        0.00000
 BRILLOUIN|   176           0.00195       -0.32812       -0.01562        0.00000
 BRILLOUIN|   177           0.00195       -0.32812        0.01562        0.00000
 BRILLOUIN|   178           0.00195       -0.32812        0.04688        0.00000
 BRILLOUIN|   179           0.00195       -0.32812        0.07812        0.00000
 BRILLOUIN|   180           0.00195       -0.32812        0.10938        0.00000
 BRILLOUIN|   181           0.00195       -0.32812        0.14062        0.00000
 BRILLOUIN|   182           0.00195       -0.32812        0.17188        0.00000
 BRILLOUIN|   183           0.00195       -0.32812        0.20312        0.00000
 BRILLOUIN|   184           0.00195       -0.32812        0.23438        0.00000
 BRILLOUIN|   185           0.00195       -0.32812        0.26562        0.00000
 BRILLOUIN|   186           0.00195       -0.32812        0.29688        0.00000
 BRILLOUIN|   187           0.00195       -0.32812        0.32812        0.00000
 BRILLOUIN|   188           0.00195       -0.32812        0.35938        0.00000
 BRILLOUIN|   189           0.00195       -0.32812        0.39062        0.00000
 BRILLOUIN|   190           0.00195       -0.32812        0.42188        0.00000
 BRILLOUIN|   191           0.00195       -0.32812        0.45312        0.00000
 BRILLOUIN|   192           0.00195       -0.32812        0.48438        0.00000
 BRILLOUIN|   193           0.00195       -0.29688       -0.48438        0.00000
 BRILLOUIN|   194           0.00195       -0.29688       -0.45312        0.00000
 BRILLOUIN|   195           0.00195       -0.29688       -0.42188        0.00000
 BRILLOUIN|   196           0.00195       -0.29688       -0.39062        0.00000
 BRILLOUIN|   197           0.00195       -0.29688       -0.35938        0.00000
 BRILLOUIN|   198           0.00195       -0.29688       -0.32812        0.00000
 BRILLOUIN|   199           0.00195       -0.29688       -0.29688        0.00000
 BRILLOUIN|   200           0.00195       -0.29688       -0.26562        0.00000
 BRILLOUIN|   201           0.00195       -0.29688       -0.23438        0.00000
 BRILLOUIN|   202           0.00195       -0.29688       -0.20312        0.00000
 BRILLOUIN|   203           0.00195       -0.29688       -0.17188        0.00000
 BRILLOUIN|   204           0.00195       -0.29688       -0.14062        0.00000
 BRILLOUIN|   205           0.00195       -0.29688       -0.10938        0.00000
 BRILLOUIN|   206           0.00195       -0.29688       -0.07812        0.00000
 BRILLOUIN|   207           0.00195       -0.29688       -0.04688        0.00000
 BRILLOUIN|   208           0.00195       -0.29688       -0.01562        0.00000
 BRILLOUIN|   209           0.00195       -0.29688        0.01562        0.00000
 BRILLOUIN|   210           0.00195       -0.29688        0.04688        0.00000
 BRILLOUIN|   211           0.00195       -0.29688        0.07812        0.00000
 BRILLOUIN|   212           0.00195       -0.29688        0.10938        0.00000
 BRILLOUIN|   213           0.00195       -0.29688        0.14062        0.00000
 BRILLOUIN|   214           0.00195       -0.29688        0.17188        0.00000
 BRILLOUIN|   215           0.00195       -0.29688        0.20312        0.00000
 BRILLOUIN|   216           0.00195       -0.29688        0.23438        0.00000
 BRILLOUIN|   217           0.00195       -0.29688        0.26562        0.00000
 BRILLOUIN|   218           0.00195       -0.29688        0.29688        0.00000
 BRILLOUIN|   219           0.00195       -0.29688        0.32812        0.00000
 BRILLOUIN|   220           0.00195       -0.29688        0.35938        0.00000
 BRILLOUIN|   221           0.00195       -0.29688        0.39062        0.00000
 BRILLOUIN|   222           0.00195       -0.29688        0.42188        0.00000
 BRILLOUIN|   223           0.00195       -0.29688        0.45312        0.00000
 BRILLOUIN|   224           0.00195       -0.29688        0.48438        0.00000
 BRILLOUIN|   225           0.00195       -0.26562       -0.48438        0.00000
 BRILLOUIN|   226           0.00195       -0.26562       -0.45312        0.00000
 BRILLOUIN|   227           0.00195       -0.26562       -0.42188        0.00000
 BRILLOUIN|   228           0.00195       -0.26562       -0.39062        0.00000
 BRILLOUIN|   229           0.00195       -0.26562       -0.35938        0.00000
 BRILLOUIN|   230           0.00195       -0.26562       -0.32812        0.00000
 BRILLOUIN|   231           0.00195       -0.26562       -0.29688        0.00000
 BRILLOUIN|   232           0.00195       -0.26562       -0.26562        0.00000
 BRILLOUIN|   233           0.00195       -0.26562       -0.23438        0.00000
 BRILLOUIN|   234           0.00195       -0.26562       -0.20312        0.00000
 BRILLOUIN|   235           0.00195       -0.26562       -0.17188        0.00000
 BRILLOUIN|   236           0.00195       -0.26562       -0.14062        0.00000
 BRILLOUIN|   237           0.00195       -0.26562       -0.10938        0.00000
 BRILLOUIN|   238           0.00195       -0.26562       -0.07812        0.00000
 BRILLOUIN|   239           0.00195       -0.26562       -0.04688        0.00000
 BRILLOUIN|   240           0.00195       -0.26562       -0.01562        0.00000
 BRILLOUIN|   241           0.00195       -0.26562        0.01562        0.00000
 BRILLOUIN|   242           0.00195       -0.26562        0.04688        0.00000
 BRILLOUIN|   243           0.00195       -0.26562        0.07812        0.00000
 BRILLOUIN|   244           0.00195       -0.26562        0.10938        0.00000
 BRILLOUIN|   245           0.00195       -0.26562        0.14062        0.00000
 BRILLOUIN|   246           0.00195       -0.26562        0.17188        0.00000
 BRILLOUIN|   247           0.00195       -0.26562        0.20312        0.00000
 BRILLOUIN|   248           0.00195       -0.26562        0.23438        0.00000
 BRILLOUIN|   249           0.00195       -0.26562        0.26562        0.00000
 BRILLOUIN|   250           0.00195       -0.26562        0.29688        0.00000
 BRILLOUIN|   251           0.00195       -0.26562        0.32812        0.00000
 BRILLOUIN|   252           0.00195       -0.26562        0.35938        0.00000
 BRILLOUIN|   253           0.00195       -0.26562        0.39062        0.00000
 BRILLOUIN|   254           0.00195       -0.26562        0.42188        0.00000
 BRILLOUIN|   255           0.00195       -0.26562        0.45312        0.00000
 BRILLOUIN|   256           0.00195       -0.26562        0.48438        0.00000
 BRILLOUIN|   257           0.00195       -0.23438       -0.48438        0.00000
 BRILLOUIN|   258           0.00195       -0.23438       -0.45312        0.00000
 BRILLOUIN|   259           0.00195       -0.23438       -0.42188        0.00000
 BRILLOUIN|   260           0.00195       -0.23438       -0.39062        0.00000
 BRILLOUIN|   261           0.00195       -0.23438       -0.35938        0.00000
 BRILLOUIN|   262           0.00195       -0.23438       -0.32812        0.00000
 BRILLOUIN|   263           0.00195       -0.23438       -0.29688        0.00000
 BRILLOUIN|   264           0.00195       -0.23438       -0.26562        0.00000
 BRILLOUIN|   265           0.00195       -0.23438       -0.23438        0.00000
 BRILLOUIN|   266           0.00195       -0.23438       -0.20312        0.00000
 BRILLOUIN|   267           0.00195       -0.23438       -0.17188        0.00000
 BRILLOUIN|   268           0.00195       -0.23438       -0.14062        0.00000
 BRILLOUIN|   269           0.00195       -0.23438       -0.10938        0.00000
 BRILLOUIN|   270           0.00195       -0.23438       -0.07812        0.00000
 BRILLOUIN|   271           0.00195       -0.23438       -0.04688        0.00000
 BRILLOUIN|   272           0.00195       -0.23438       -0.01562        0.00000
 BRILLOUIN|   273           0.00195       -0.23438        0.01562        0.00000
 BRILLOUIN|   274           0.00195       -0.23438        0.04688        0.00000
 BRILLOUIN|   275           0.00195       -0.23438        0.07812        0.00000
 BRILLOUIN|   276           0.00195       -0.23438        0.10938        0.00000
 BRILLOUIN|   277           0.00195       -0.23438        0.14062        0.00000
 BRILLOUIN|   278           0.00195       -0.23438        0.17188        0.00000
 BRILLOUIN|   279           0.00195       -0.23438        0.20312        0.00000
 BRILLOUIN|   280           0.00195       -0.23438        0.23438        0.00000
 BRILLOUIN|   281           0.00195       -0.23438        0.26562        0.00000
 BRILLOUIN|   282           0.00195       -0.23438        0.29688        0.00000
 BRILLOUIN|   283           0.00195       -0.23438        0.32812        0.00000
 BRILLOUIN|   284           0.00195       -0.23438        0.35938        0.00000
 BRILLOUIN|   285           0.00195       -0.23438        0.39062        0.00000
 BRILLOUIN|   286           0.00195       -0.23438        0.42188        0.00000
 BRILLOUIN|   287           0.00195       -0.23438        0.45312        0.00000
 BRILLOUIN|   288           0.00195       -0.23438        0.48438        0.00000
 BRILLOUIN|   289           0.00195       -0.20312       -0.48438        0.00000
 BRILLOUIN|   290           0.00195       -0.20312       -0.45312        0.00000
 BRILLOUIN|   291           0.00195       -0.20312       -0.42188        0.00000
 BRILLOUIN|   292           0.00195       -0.20312       -0.39062        0.00000
 BRILLOUIN|   293           0.00195       -0.20312       -0.35938        0.00000
 BRILLOUIN|   294           0.00195       -0.20312       -0.32812        0.00000
 BRILLOUIN|   295           0.00195       -0.20312       -0.29688        0.00000
 BRILLOUIN|   296           0.00195       -0.20312       -0.26562        0.00000
 BRILLOUIN|   297           0.00195       -0.20312       -0.23438        0.00000
 BRILLOUIN|   298           0.00195       -0.20312       -0.20312        0.00000
 BRILLOUIN|   299           0.00195       -0.20312       -0.17188        0.00000
 BRILLOUIN|   300           0.00195       -0.20312       -0.14062        0.00000
 BRILLOUIN|   301           0.00195       -0.20312       -0.10938        0.00000
 BRILLOUIN|   302           0.00195       -0.20312       -0.07812        0.00000
 BRILLOUIN|   303           0.00195       -0.20312       -0.04688        0.00000
 BRILLOUIN|   304           0.00195       -0.20312       -0.01562        0.00000
 BRILLOUIN|   305           0.00195       -0.20312        0.01562        0.00000
 BRILLOUIN|   306           0.00195       -0.20312        0.04688        0.00000
 BRILLOUIN|   307           0.00195       -0.20312        0.07812        0.00000
 BRILLOUIN|   308           0.00195       -0.20312        0.10938        0.00000
 BRILLOUIN|   309           0.00195       -0.20312        0.14062        0.00000
 BRILLOUIN|   310           0.00195       -0.20312        0.17188        0.00000
 BRILLOUIN|   311           0.00195       -0.20312        0.20312        0.00000
 BRILLOUIN|   312           0.00195       -0.20312        0.23438        0.00000
 BRILLOUIN|   313           0.00195       -0.20312        0.26562        0.00000
 BRILLOUIN|   314           0.00195       -0.20312        0.29688        0.00000
 BRILLOUIN|   315           0.00195       -0.20312        0.32812        0.00000
 BRILLOUIN|   316           0.00195       -0.20312        0.35938        0.00000
 BRILLOUIN|   317           0.00195       -0.20312        0.39062        0.00000
 BRILLOUIN|   318           0.00195       -0.20312        0.42188        0.00000
 BRILLOUIN|   319           0.00195       -0.20312        0.45312        0.00000
 BRILLOUIN|   320           0.00195       -0.20312        0.48438        0.00000
 BRILLOUIN|   321           0.00195       -0.17188       -0.48438        0.00000
 BRILLOUIN|   322           0.00195       -0.17188       -0.45312        0.00000
 BRILLOUIN|   323           0.00195       -0.17188       -0.42188        0.00000
 BRILLOUIN|   324           0.00195       -0.17188       -0.39062        0.00000
 BRILLOUIN|   325           0.00195       -0.17188       -0.35938        0.00000
 BRILLOUIN|   326           0.00195       -0.17188       -0.32812        0.00000
 BRILLOUIN|   327           0.00195       -0.17188       -0.29688        0.00000
 BRILLOUIN|   328           0.00195       -0.17188       -0.26562        0.00000
 BRILLOUIN|   329           0.00195       -0.17188       -0.23438        0.00000
 BRILLOUIN|   330           0.00195       -0.17188       -0.20312        0.00000
 BRILLOUIN|   331           0.00195       -0.17188       -0.17188        0.00000
 BRILLOUIN|   332           0.00195       -0.17188       -0.14062        0.00000
 BRILLOUIN|   333           0.00195       -0.17188       -0.10938        0.00000
 BRILLOUIN|   334           0.00195       -0.17188       -0.07812        0.00000
 BRILLOUIN|   335           0.00195       -0.17188       -0.04688        0.00000
 BRILLOUIN|   336           0.00195       -0.17188       -0.01562        0.00000
 BRILLOUIN|   337           0.00195       -0.17188        0.01562        0.00000
 BRILLOUIN|   338           0.00195       -0.17188        0.04688        0.00000
 BRILLOUIN|   339           0.00195       -0.17188        0.07812        0.00000
 BRILLOUIN|   340           0.00195       -0.17188        0.10938        0.00000
 BRILLOUIN|   341           0.00195       -0.17188        0.14062        0.00000
 BRILLOUIN|   342           0.00195       -0.17188        0.17188        0.00000
 BRILLOUIN|   343           0.00195       -0.17188        0.20312        0.00000
 BRILLOUIN|   344           0.00195       -0.17188        0.23438        0.00000
 BRILLOUIN|   345           0.00195       -0.17188        0.26562        0.00000
 BRILLOUIN|   346           0.00195       -0.17188        0.29688        0.00000
 BRILLOUIN|   347           0.00195       -0.17188        0.32812        0.00000
 BRILLOUIN|   348           0.00195       -0.17188        0.35938        0.00000
 BRILLOUIN|   349           0.00195       -0.17188        0.39062        0.00000
 BRILLOUIN|   350           0.00195       -0.17188        0.42188        0.00000
 BRILLOUIN|   351           0.00195       -0.17188        0.45312        0.00000
 BRILLOUIN|   352           0.00195       -0.17188        0.48438        0.00000
 BRILLOUIN|   353           0.00195       -0.14062       -0.48438        0.00000
 BRILLOUIN|   354           0.00195       -0.14062       -0.45312        0.00000
 BRILLOUIN|   355           0.00195       -0.14062       -0.42188        0.00000
 BRILLOUIN|   356           0.00195       -0.14062       -0.39062        0.00000
 BRILLOUIN|   357           0.00195       -0.14062       -0.35938        0.00000
 BRILLOUIN|   358           0.00195       -0.14062       -0.32812        0.00000
 BRILLOUIN|   359           0.00195       -0.14062       -0.29688        0.00000
 BRILLOUIN|   360           0.00195       -0.14062       -0.26562        0.00000
 BRILLOUIN|   361           0.00195       -0.14062       -0.23438        0.00000
 BRILLOUIN|   362           0.00195       -0.14062       -0.20312        0.00000
 BRILLOUIN|   363           0.00195       -0.14062       -0.17188        0.00000
 BRILLOUIN|   364           0.00195       -0.14062       -0.14062        0.00000
 BRILLOUIN|   365           0.00195       -0.14062       -0.10938        0.00000
 BRILLOUIN|   366           0.00195       -0.14062       -0.07812        0.00000
 BRILLOUIN|   367           0.00195       -0.14062       -0.04688        0.00000
 BRILLOUIN|   368           0.00195       -0.14062       -0.01562        0.00000
 BRILLOUIN|   369           0.00195       -0.14062        0.01562        0.00000
 BRILLOUIN|   370           0.00195       -0.14062        0.04688        0.00000
 BRILLOUIN|   371           0.00195       -0.14062        0.07812        0.00000
 BRILLOUIN|   372           0.00195       -0.14062        0.10938        0.00000
 BRILLOUIN|   373           0.00195       -0.14062        0.14062        0.00000
 BRILLOUIN|   374           0.00195       -0.14062        0.17188        0.00000
 BRILLOUIN|   375           0.00195       -0.14062        0.20312        0.00000
 BRILLOUIN|   376           0.00195       -0.14062        0.23438        0.00000
 BRILLOUIN|   377           0.00195       -0.14062        0.26562        0.00000
 BRILLOUIN|   378           0.00195       -0.14062        0.29688        0.00000
 BRILLOUIN|   379           0.00195       -0.14062        0.32812        0.00000
 BRILLOUIN|   380           0.00195       -0.14062        0.35938        0.00000
 BRILLOUIN|   381           0.00195       -0.14062        0.39062        0.00000
 BRILLOUIN|   382           0.00195       -0.14062        0.42188        0.00000
 BRILLOUIN|   383           0.00195       -0.14062        0.45312        0.00000
 BRILLOUIN|   384           0.00195       -0.14062        0.48438        0.00000
 BRILLOUIN|   385           0.00195       -0.10938       -0.48438        0.00000
 BRILLOUIN|   386           0.00195       -0.10938       -0.45312        0.00000
 BRILLOUIN|   387           0.00195       -0.10938       -0.42188        0.00000
 BRILLOUIN|   388           0.00195       -0.10938       -0.39062        0.00000
 BRILLOUIN|   389           0.00195       -0.10938       -0.35938        0.00000
 BRILLOUIN|   390           0.00195       -0.10938       -0.32812        0.00000
 BRILLOUIN|   391           0.00195       -0.10938       -0.29688        0.00000
 BRILLOUIN|   392           0.00195       -0.10938       -0.26562        0.00000
 BRILLOUIN|   393           0.00195       -0.10938       -0.23438        0.00000
 BRILLOUIN|   394           0.00195       -0.10938       -0.20312        0.00000
 BRILLOUIN|   395           0.00195       -0.10938       -0.17188        0.00000
 BRILLOUIN|   396           0.00195       -0.10938       -0.14062        0.00000
 BRILLOUIN|   397           0.00195       -0.10938       -0.10938        0.00000
 BRILLOUIN|   398           0.00195       -0.10938       -0.07812        0.00000
 BRILLOUIN|   399           0.00195       -0.10938       -0.04688        0.00000
 BRILLOUIN|   400           0.00195       -0.10938       -0.01562        0.00000
 BRILLOUIN|   401           0.00195       -0.10938        0.01562        0.00000
 BRILLOUIN|   402           0.00195       -0.10938        0.04688        0.00000
 BRILLOUIN|   403           0.00195       -0.10938        0.07812        0.00000
 BRILLOUIN|   404           0.00195       -0.10938        0.10938        0.00000
 BRILLOUIN|   405           0.00195       -0.10938        0.14062        0.00000
 BRILLOUIN|   406           0.00195       -0.10938        0.17188        0.00000
 BRILLOUIN|   407           0.00195       -0.10938        0.20312        0.00000
 BRILLOUIN|   408           0.00195       -0.10938        0.23438        0.00000
 BRILLOUIN|   409           0.00195       -0.10938        0.26562        0.00000
 BRILLOUIN|   410           0.00195       -0.10938        0.29688        0.00000
 BRILLOUIN|   411           0.00195       -0.10938        0.32812        0.00000
 BRILLOUIN|   412           0.00195       -0.10938        0.35938        0.00000
 BRILLOUIN|   413           0.00195       -0.10938        0.39062        0.00000
 BRILLOUIN|   414           0.00195       -0.10938        0.42188        0.00000
 BRILLOUIN|   415           0.00195       -0.10938        0.45312        0.00000
 BRILLOUIN|   416           0.00195       -0.10938        0.48438        0.00000
 BRILLOUIN|   417           0.00195       -0.07812       -0.48438        0.00000
 BRILLOUIN|   418           0.00195       -0.07812       -0.45312        0.00000
 BRILLOUIN|   419           0.00195       -0.07812       -0.42188        0.00000
 BRILLOUIN|   420           0.00195       -0.07812       -0.39062        0.00000
 BRILLOUIN|   421           0.00195       -0.07812       -0.35938        0.00000
 BRILLOUIN|   422           0.00195       -0.07812       -0.32812        0.00000
 BRILLOUIN|   423           0.00195       -0.07812       -0.29688        0.00000
 BRILLOUIN|   424           0.00195       -0.07812       -0.26562        0.00000
 BRILLOUIN|   425           0.00195       -0.07812       -0.23438        0.00000
 BRILLOUIN|   426           0.00195       -0.07812       -0.20312        0.00000
 BRILLOUIN|   427           0.00195       -0.07812       -0.17188        0.00000
 BRILLOUIN|   428           0.00195       -0.07812       -0.14062        0.00000
 BRILLOUIN|   429           0.00195       -0.07812       -0.10938        0.00000
 BRILLOUIN|   430           0.00195       -0.07812       -0.07812        0.00000
 BRILLOUIN|   431           0.00195       -0.07812       -0.04688        0.00000
 BRILLOUIN|   432           0.00195       -0.07812       -0.01562        0.00000
 BRILLOUIN|   433           0.00195       -0.07812        0.01562        0.00000
 BRILLOUIN|   434           0.00195       -0.07812        0.04688        0.00000
 BRILLOUIN|   435           0.00195       -0.07812        0.07812        0.00000
 BRILLOUIN|   436           0.00195       -0.07812        0.10938        0.00000
 BRILLOUIN|   437           0.00195       -0.07812        0.14062        0.00000
 BRILLOUIN|   438           0.00195       -0.07812        0.17188        0.00000
 BRILLOUIN|   439           0.00195       -0.07812        0.20312        0.00000
 BRILLOUIN|   440           0.00195       -0.07812        0.23438        0.00000
 BRILLOUIN|   441           0.00195       -0.07812        0.26562        0.00000
 BRILLOUIN|   442           0.00195       -0.07812        0.29688        0.00000
 BRILLOUIN|   443           0.00195       -0.07812        0.32812        0.00000
 BRILLOUIN|   444           0.00195       -0.07812        0.35938        0.00000
 BRILLOUIN|   445           0.00195       -0.07812        0.39062        0.00000
 BRILLOUIN|   446           0.00195       -0.07812        0.42188        0.00000
 BRILLOUIN|   447           0.00195       -0.07812        0.45312        0.00000
 BRILLOUIN|   448           0.00195       -0.07812        0.48438        0.00000
 BRILLOUIN|   449           0.00195       -0.04688       -0.48438        0.00000
 BRILLOUIN|   450           0.00195       -0.04688       -0.45312        0.00000
 BRILLOUIN|   451           0.00195       -0.04688       -0.42188        0.00000
 BRILLOUIN|   452           0.00195       -0.04688       -0.39062        0.00000
 BRILLOUIN|   453           0.00195       -0.04688       -0.35938        0.00000
 BRILLOUIN|   454           0.00195       -0.04688       -0.32812        0.00000
 BRILLOUIN|   455           0.00195       -0.04688       -0.29688        0.00000
 BRILLOUIN|   456           0.00195       -0.04688       -0.26562        0.00000
 BRILLOUIN|   457           0.00195       -0.04688       -0.23438        0.00000
 BRILLOUIN|   458           0.00195       -0.04688       -0.20312        0.00000
 BRILLOUIN|   459           0.00195       -0.04688       -0.17188        0.00000
 BRILLOUIN|   460           0.00195       -0.04688       -0.14062        0.00000
 BRILLOUIN|   461           0.00195       -0.04688       -0.10938        0.00000
 BRILLOUIN|   462           0.00195       -0.04688       -0.07812        0.00000
 BRILLOUIN|   463           0.00195       -0.04688       -0.04688        0.00000
 BRILLOUIN|   464           0.00195       -0.04688       -0.01562        0.00000
 BRILLOUIN|   465           0.00195       -0.04688        0.01562        0.00000
 BRILLOUIN|   466           0.00195       -0.04688        0.04688        0.00000
 BRILLOUIN|   467           0.00195       -0.04688        0.07812        0.00000
 BRILLOUIN|   468           0.00195       -0.04688        0.10938        0.00000
 BRILLOUIN|   469           0.00195       -0.04688        0.14062        0.00000
 BRILLOUIN|   470           0.00195       -0.04688        0.17188        0.00000
 BRILLOUIN|   471           0.00195       -0.04688        0.20312        0.00000
 BRILLOUIN|   472           0.00195       -0.04688        0.23438        0.00000
 BRILLOUIN|   473           0.00195       -0.04688        0.26562        0.00000
 BRILLOUIN|   474           0.00195       -0.04688        0.29688        0.00000
 BRILLOUIN|   475           0.00195       -0.04688        0.32812        0.00000
 BRILLOUIN|   476           0.00195       -0.04688        0.35938        0.00000
 BRILLOUIN|   477           0.00195       -0.04688        0.39062        0.00000
 BRILLOUIN|   478           0.00195       -0.04688        0.42188        0.00000
 BRILLOUIN|   479           0.00195       -0.04688        0.45312        0.00000
 BRILLOUIN|   480           0.00195       -0.04688        0.48438        0.00000
 BRILLOUIN|   481           0.00195       -0.01562       -0.48438        0.00000
 BRILLOUIN|   482           0.00195       -0.01562       -0.45312        0.00000
 BRILLOUIN|   483           0.00195       -0.01562       -0.42188        0.00000
 BRILLOUIN|   484           0.00195       -0.01562       -0.39062        0.00000
 BRILLOUIN|   485           0.00195       -0.01562       -0.35938        0.00000
 BRILLOUIN|   486           0.00195       -0.01562       -0.32812        0.00000
 BRILLOUIN|   487           0.00195       -0.01562       -0.29688        0.00000
 BRILLOUIN|   488           0.00195       -0.01562       -0.26562        0.00000
 BRILLOUIN|   489           0.00195       -0.01562       -0.23438        0.00000
 BRILLOUIN|   490           0.00195       -0.01562       -0.20312        0.00000
 BRILLOUIN|   491           0.00195       -0.01562       -0.17188        0.00000
 BRILLOUIN|   492           0.00195       -0.01562       -0.14062        0.00000
 BRILLOUIN|   493           0.00195       -0.01562       -0.10938        0.00000
 BRILLOUIN|   494           0.00195       -0.01562       -0.07812        0.00000
 BRILLOUIN|   495           0.00195       -0.01562       -0.04688        0.00000
 BRILLOUIN|   496           0.00195       -0.01562       -0.01562        0.00000
 BRILLOUIN|   497           0.00195       -0.01562        0.01562        0.00000
 BRILLOUIN|   498           0.00195       -0.01562        0.04688        0.00000
 BRILLOUIN|   499           0.00195       -0.01562        0.07812        0.00000
 BRILLOUIN|   500           0.00195       -0.01562        0.10938        0.00000
 BRILLOUIN|   501           0.00195       -0.01562        0.14062        0.00000
 BRILLOUIN|   502           0.00195       -0.01562        0.17188        0.00000
 BRILLOUIN|   503           0.00195       -0.01562        0.20312        0.00000
 BRILLOUIN|   504           0.00195       -0.01562        0.23438        0.00000
 BRILLOUIN|   505           0.00195       -0.01562        0.26562        0.00000
 BRILLOUIN|   506           0.00195       -0.01562        0.29688        0.00000
 BRILLOUIN|   507           0.00195       -0.01562        0.32812        0.00000
 BRILLOUIN|   508           0.00195       -0.01562        0.35938        0.00000
 BRILLOUIN|   509           0.00195       -0.01562        0.39062        0.00000
 BRILLOUIN|   510           0.00195       -0.01562        0.42188        0.00000
 BRILLOUIN|   511           0.00195       -0.01562        0.45312        0.00000
 BRILLOUIN|   512           0.00195       -0.01562        0.48438        0.00000
 *******************************************************************************

 *******************************************************************************
 *******************************************************************************
 **                                                                           **
 **     #####                         ##              ##                      **
 **    ##   ##            ##          ##              ##                      **
 **   ##     ##                       ##            ######                    **
 **   ##     ##  ##   ##  ##   #####  ##  ##   ####   ##    #####    #####    **
 **   ##     ##  ##   ##  ##  ##      ## ##   ##      ##   ##   ##  ##   ##   **
 **   ##  ## ##  ##   ##  ##  ##      ####     ###    ##   ######   ######    **
 **    ##  ###   ##   ##  ##  ##      ## ##      ##   ##   ##       ##        **
 **     #######   #####   ##   #####  ##  ##  ####    ##    #####   ##        **
 **           ##                                                    ##        **
 **                                                                           **
 **                                                ... make the atoms dance   **
 **                                                                           **
 **            Copyright (C) by CP2K developers group (2000-2025)             **
 **                      J. Chem. Phys. 152, 194103 (2020)                    **
 **                                                                           **
 *******************************************************************************

 DFT| Spin restricted Kohn-Sham (RKS) calculation                            RKS
 DFT| Multiplicity                                                             1
 DFT| Number of spin states                                                    1
 DFT| Charge                                                                   0
 DFT| Self-interaction correction (SIC)                                       NO
 DFT| Cutoffs: density                                              1.000000E-10
 DFT|          gradient                                             1.000000E-10
 DFT|          tau                                                  1.000000E-10
 DFT|          cutoff_smoothing_range                               0.000000E+00
 DFT| XC density smoothing                                                  NONE
 DFT| XC derivatives                                                          PW

 FUNCTIONAL| PBE:
 FUNCTIONAL| J.P.Perdew, K.Burke, M.Ernzerhof, Phys. Rev. Letter, vol. 77, n 18,
 FUNCTIONAL|  pp. 3865-3868, (1996) {spin unpolarized}                          


 QS| Method:                                                                GAPW
 QS| Density plane wave grid type                        NON-SPHERICAL FULLSPACE
 QS| Number of grid levels:                                                    4
 QS| Density cutoff [a.u.]:                                                250.0
 QS| Multi grid cutoff [a.u.]: 1) grid level                               250.0
 QS|                           2) grid level                                83.3
 QS|                           3) grid level                                27.8
 QS|                           4) grid level                                 9.3
 QS| Grid level progression factor:                                          3.0
 QS| Relative density cutoff [a.u.]:                                        50.0
 QS| Interaction thresholds: eps_pgf_orb:                                1.0E-12
 QS|                         eps_filter_matrix:                          0.0E+00
 QS|                         eps_core_charge:                            1.0E-14
 QS|                         eps_rho_gspace:                             1.0E-12
 QS|                         eps_rho_rspace:                             1.0E-12
 QS|                         eps_gvg_rspace:                             1.0E-06
 QS|                         eps_ppl:                                    1.0E-02
 QS|                         eps_ppnl:                                   1.0E-08
 QS| GAPW|      One center basis from orbital basis primitives
 QS| GAPW|                   eps_fit:                                    1.0E-04
 QS| GAPW|                   eps_iso:                                    1.0E-12
 QS| GAPW|                   eps_svd:                                    1.0E-08
 QS| GAPW|                   eps_cpc:                                    1.0E-12
 QS| GAPW|   atom-r-grid: quadrature:                                     GC_LOG
 QS| GAPW|      atom-s-grid:  max l :                                          4
 QS| GAPW|      max_l_rho0 :                                                   2
 QS| GAPW|      At least one kind is NOT PAW, i.e. it has only soft AO 
 QS| GAPW|      The NOT PAW atoms are treated fully GPW


 ATOMIC KIND INFORMATION

  1. Atomic kind: Mo                                    Number of atoms:       1

     Orbital Basis Set                                         SZV-MOLOPT-SR-GTH

       Number of orbital shell sets:                                           1
       Number of orbital shells:                                               4
       Number of primitive Cartesian functions:                                7
       Number of Cartesian basis functions:                                   11
       Number of spherical basis functions:                                   10
       Norm type:                                                              2

       Normalised Cartesian orbitals:

                        Set   Shell   Orbital            Exponent    Coefficient

                          1       1    2s                2.540273      -1.291313
                                                         1.999996       0.475974
                                                         0.894040       0.689563
                                                         0.439257       0.078864
                                                         0.189498       0.027372
                                                         0.083802      -0.010762
                                                         0.052949       0.001981

                          1       2    3s                2.540273       0.199824
                                                         1.999996      -0.186721
                                                         0.894040       0.125661
                                                         0.439257       0.016258
                                                         0.189498      -0.028997
                                                         0.083802      -0.064725
                                                         0.052949      -0.030340

                          1       3    3px               2.540273       2.808959
                                                         1.999996      -2.548088
                                                         0.894040      -0.605502
                                                         0.439257      -0.180857
                                                         0.189498      -0.006020
                                                         0.083802      -0.000118
                                                         0.052949       0.000064
                          1       3    3py               2.540273       2.808959
                                                         1.999996      -2.548088
                                                         0.894040      -0.605502
                                                         0.439257      -0.180857
                                                         0.189498      -0.006020
                                                         0.083802      -0.000118
                                                         0.052949       0.000064
                          1       3    3pz               2.540273       2.808959
                                                         1.999996      -2.548088
                                                         0.894040      -0.605502
                                                         0.439257      -0.180857
                                                         0.189498      -0.006020
                                                         0.083802      -0.000118
                                                         0.052949       0.000064

                          1       4    4dx2              2.540273      -1.655644
                                                         1.999996       2.115795
                                                         0.894040       0.370223
                                                         0.439257       0.160904
                                                         0.189498       0.023725
                                                         0.083802       0.001356
                                                         0.052949       0.000173
                          1       4    4dxy              2.540273      -2.867659
                                                         1.999996       3.664665
                                                         0.894040       0.641246
                                                         0.439257       0.278693
                                                         0.189498       0.041094
                                                         0.083802       0.002348
                                                         0.052949       0.000300
                          1       4    4dxz              2.540273      -2.867659
                                                         1.999996       3.664665
                                                         0.894040       0.641246
                                                         0.439257       0.278693
                                                         0.189498       0.041094
                                                         0.083802       0.002348
                                                         0.052949       0.000300
                          1       4    4dy2              2.540273      -1.655644
                                                         1.999996       2.115795
                                                         0.894040       0.370223
                                                         0.439257       0.160904
                                                         0.189498       0.023725
                                                         0.083802       0.001356
                                                         0.052949       0.000173
                          1       4    4dyz              2.540273      -2.867659
                                                         1.999996       3.664665
                                                         0.894040       0.641246
                                                         0.439257       0.278693
                                                         0.189498       0.041094
                                                         0.083802       0.002348
                                                         0.052949       0.000300
                          1       4    4dz2              2.540273      -1.655644
                                                         1.999996       2.115795
                                                         0.894040       0.370223
                                                         0.439257       0.160904
                                                         0.189498       0.023725
                                                         0.083802       0.001356
                                                         0.052949       0.000173

     RI Auxiliary Basis Set             RI_aug-SZV-MOLOPT-GTH-tier-2_N_RI_072_s_

       Number of orbital shell sets:                                          18
       Number of orbital shells:                                              18
       Number of primitive Cartesian functions:                               18
       Number of Cartesian basis functions:                                  100
       Number of spherical basis functions:                                   72
       Norm type:                                                              2

       Normalised Cartesian orbitals:

                        Set   Shell   Orbital            Exponent    Coefficient

                          1       1    1s                0.082504       0.109715

                          2       1   14fx3              0.117891       0.011989
                          2       1   14fx2y             0.117891       0.026809
                          2       1   14fx2z             0.117891       0.026809
                          2       1   14fxy2             0.117891       0.026809
                          2       1   14fxyz             0.117891       0.046434
                          2       1   14fxz2             0.117891       0.026809
                          2       1   14fy3              0.117891       0.011989
                          2       1   14fy2z             0.117891       0.026809
                          2       1   14fyz2             0.117891       0.026809
                          2       1   14fz3              0.117891       0.011989

                          3       1   11dx2              0.131598       0.047325
                          3       1   11dxy              0.131598       0.081970
                          3       1   11dxz              0.131598       0.081970
                          3       1   11dy2              0.131598       0.047325
                          3       1   11dyz              0.131598       0.081970
                          3       1   11dz2              0.131598       0.047325

                          4       1    2s                0.158996       0.179453

                          5       1    8px               0.201798       0.192790
                          5       1    8py               0.201798       0.192790
                          5       1    8pz               0.201798       0.192790

                          6       1    3s                0.306700       0.293728

                          7       1   12dx2              0.564390       0.604886
                          7       1   12dxy              0.564390       1.047694
                          7       1   12dxz              0.564390       1.047694
                          7       1   12dy2              0.564390       0.604886
                          7       1   12dyz              0.564390       1.047694
                          7       1   12dz2              0.564390       0.604886

                          8       1    4s                0.590708       0.480220

                          9       1   15fx3              0.709356       0.679829
                          9       1   15fx2y             0.709356       1.520144
                          9       1   15fx2z             0.709356       1.520144
                          9       1   15fxy2             0.709356       1.520144
                          9       1   15fxyz             0.709356       2.632966
                          9       1   15fxz2             0.709356       1.520144
                          9       1   15fy3              0.709356       0.679829
                          9       1   15fy2z             0.709356       1.520144
                          9       1   15fyz2             0.709356       1.520144
                          9       1   15fz3              0.709356       0.679829

                         10       1   18hx5              1.057604       0.890010
                         10       1   18hx4y             1.057604       2.670029
                         10       1   18hx4z             1.057604       2.670029
                         10       1   18hx3y2            1.057604       4.078537
                         10       1   18hx3yz            1.057604       7.064233
                         10       1   18hx3z2            1.057604       4.078537
                         10       1   18hx2y3            1.057604       4.078537
                         10       1   18hx2y2z           1.057604       9.119885
                         10       1   18hx2yz2           1.057604       9.119885
                         10       1   18hx2z3            1.057604       4.078537
                         10       1   18hxy4             1.057604       2.670029
                         10       1   18hxy3z            1.057604       7.064233
                         10       1   18hxy2z2           1.057604       9.119885
                         10       1   18hxyz3            1.057604       7.064233
                         10       1   18hxz4             1.057604       2.670029
                         10       1   18hy5              1.057604       0.890010
                         10       1   18hy4z             1.057604       2.670029
                         10       1   18hy3z2            1.057604       4.078537
                         10       1   18hy2z3            1.057604       4.078537
                         10       1   18hyz4             1.057604       2.670029
                         10       1   18hz5              1.057604       0.890010

                         11       1    5s                1.134305       0.783353

                         12       1    9px               1.330289       2.036445
                         12       1    9py               1.330289       2.036445
                         12       1    9pz               1.330289       2.036445

                         13       1   13dx2              1.402926       2.976599
                         13       1   13dxy              1.402926       5.155620
                         13       1   13dxz              1.402926       5.155620
                         13       1   13dy2              1.402926       2.976599
                         13       1   13dyz              1.402926       5.155620
                         13       1   13dz2              1.402926       2.976599

                         14       1   16fx3              1.722871       5.006375
                         14       1   16fx2y             1.722871      11.194594
                         14       1   16fx2z             1.722871      11.194594
                         14       1   16fxy2             1.722871      11.194594
                         14       1   16fxyz             1.722871      19.389605
                         14       1   16fxz2             1.722871      11.194594
                         14       1   16fy3              1.722871       5.006375
                         14       1   16fy2z             1.722871      11.194594
                         14       1   16fyz2             1.722871      11.194594
                         14       1   16fz3              1.722871       5.006375

                         15       1   17gx4              2.109173       8.664505
                         15       1   17gx3y             2.109173      22.924126
                         15       1   17gx3z             2.109173      22.924126
                         15       1   17gx2y2            2.109173      29.594919
                         15       1   17gx2yz            2.109173      51.259903
                         15       1   17gx2z2            2.109173      29.594919
                         15       1   17gxy3             2.109173      22.924126
                         15       1   17gxy2z            2.109173      51.259903
                         15       1   17gxyz2            2.109173      51.259903
                         15       1   17gxz3             2.109173      22.924126
                         15       1   17gy4              2.109173       8.664505
                         15       1   17gy3z             2.109173      22.924126
                         15       1   17gy2z2            2.109173      29.594919
                         15       1   17gyz3             2.109173      22.924126
                         15       1   17gz4              2.109173       8.664505

                         16       1    6s                2.186453       1.281490

                         17       1   10px               3.806405       7.578509
                         17       1   10py               3.806405       7.578509
                         17       1   10pz               3.806405       7.578509

                         18       1    7s                4.226756       2.100949

       Atomic covalent radius [Angstrom]:                                  1.300

       Atomic van der Waals radius [Angstrom]:                             1.670

     GTH Potential information for                                   GTH-PBE-q14

       Description:                       Goedecker-Teter-Hutter pseudopotential
                                           Goedecker et al., PRB 54, 1703 (1996)
                                          Hartwigsen et al., PRB 58, 3641 (1998)
                                                      Krack, TCA 114, 145 (2005)

       Gaussian exponent of the core charge distribution:               2.704164
       Electronic configuration (s p d ...):                           3   6   5

       Parameters of the local part of the GTH pseudopotential:

                          rloc        C1          C2          C3          C4
                        0.430000   28.609368   -4.721803

       Parameters of the non-local part of the GTH (SOC) pseudopotential:

                   l      r(l)      h(i,j,l)
                                    k(i,j,l)
                   0    0.345216    0.146303    2.762005
                                    2.762005   -3.565733
                   1    0.416888   -0.190785   -0.728744
                                   -0.728744    0.862262
                                    0.101036    0.157628
                                    0.157628   -0.186508
                   2    0.420508    1.216814   -2.686463
                                   -2.686463    3.046162
                                    0.001360    0.022739
                                    0.022739   -0.025783

  2. Atomic kind: S                                     Number of atoms:       2

     Orbital Basis Set                                            SZV-MOLOPT-GTH

       Number of orbital shell sets:                                           1
       Number of orbital shells:                                               2
       Number of primitive Cartesian functions:                                6
       Number of Cartesian basis functions:                                    4
       Number of spherical basis functions:                                    4
       Norm type:                                                              2

       Normalised Cartesian orbitals:

                        Set   Shell   Orbital            Exponent    Coefficient

                          1       1    2s                3.817591       0.157264
                                                         2.362752      -0.510082
                                                         0.861004      -0.067545
                                                         0.417525       0.341507
                                                         0.181514       0.065073
                                                         0.070571       0.000166

                          1       2    3px               3.817591      -0.172386
                                                         2.362752      -0.175607
                                                         0.861004       0.224215
                                                         0.417525       0.286358
                                                         0.181514       0.049699
                                                         0.070571       0.001588
                          1       2    3py               3.817591      -0.172386
                                                         2.362752      -0.175607
                                                         0.861004       0.224215
                                                         0.417525       0.286358
                                                         0.181514       0.049699
                                                         0.070571       0.001588
                          1       2    3pz               3.817591      -0.172386
                                                         2.362752      -0.175607
                                                         0.861004       0.224215
                                                         0.417525       0.286358
                                                         0.181514       0.049699
                                                         0.070571       0.001588

     RI Auxiliary Basis Set             RI_aug-SZV-MOLOPT-GTH-tier-2_N_RI_028_s_

       Number of orbital shell sets:                                          10
       Number of orbital shells:                                              10
       Number of primitive Cartesian functions:                               10
       Number of Cartesian basis functions:                                   33
       Number of spherical basis functions:                                   28
       Norm type:                                                              2

       Normalised Cartesian orbitals:

                        Set   Shell   Orbital            Exponent    Coefficient

                          1       1    1s                0.175093       0.192913

                          2       1    8dx2              0.234328       0.129897
                          2       1    8dxy              0.234328       0.224989
                          2       1    8dxz              0.234328       0.224989
                          2       1    8dy2              0.234328       0.129897
                          2       1    8dyz              0.234328       0.224989
                          2       1    8dz2              0.234328       0.129897

                          3       1    6px               0.327358       0.352955
                          3       1    6py               0.327358       0.352955
                          3       1    6pz               0.327358       0.352955

                          4       1    2s                0.417113       0.369914

                          5       1    7px               0.579793       0.721159
                          5       1    7py               0.579793       0.721159
[...]
 dbt_total                      5212005  9.6    5.738    7.730  894.719 1238.918
 dbt_contract                   2114762 10.3   11.445   15.849  803.679 1116.937
 build_2c_coulomb_matrix_kp_sma  655360 10.0  979.332 1041.353  979.332 1041.353
 dbt_tas_multiply               2177280 12.9    1.362    1.961  727.729 1025.691
 dbt_tas_total                  2177280 13.9   57.810   82.468  726.860 1024.451
 compute_chi                          1  7.0    0.016    0.046  966.770  966.915
 mp_sync                        ******* 12.1  697.173  960.178  697.173  960.178
 copy_dbcsr_to_fm                288985  8.0    1.559    1.757  839.612  841.258
 scf_env_do_scf                       1  3.0    0.001    0.003  817.334  817.339
 scf_env_do_scf_inner_loop           75  4.0    0.010    0.014  817.333  817.338
 dbcsr_complete_redistribute     512056  9.6   10.012   13.842  763.273  812.556
 qs_scf_new_mos_kp                   75  5.0    0.000    0.001  804.218  804.268
 do_general_diag_kp                  75  6.0    0.369    0.391  804.218  804.268
 dbcsr_desymmetrize_deep         456649  8.3    4.672    5.696  663.235  665.043
 mp_alltoall_d11v               2906115 10.4  540.100  541.547  540.100  541.547
 mp_alltoall_i11v               1992817 10.3  526.574  526.649  526.574  526.649
 G_occ_vir                          121  8.0    0.269    0.301  499.527  501.284
 fm_to_local_tensor              146072  9.0    2.439    2.738  413.963  413.978
 copy_fm_to_dbcsr                223071  9.3    0.509    0.533  352.964  402.165
 contract_to_Sigma                   91  8.0    8.008    9.269  288.951  398.492
 dbt_tas_estimate_result_nze    1088640 13.4   29.196   43.098  279.617  391.880
 contract_M_occ_vir_to_chi           66  8.0   14.498   22.179  174.387  354.389
 parallel_gemm_cfm               280952  8.9    0.160    0.179  340.987  346.518
 parallel_gemm_cfm_cosma         280952  9.9  340.826  346.351  340.826  346.351
 local_dbt_to_global_fm              91  8.0    0.146    0.158  328.226  328.239
 contract_W                          48  8.0    2.712    3.560  287.314  318.463
 mp_alltoall_i22                 968705 10.0  250.712  300.140  250.712  300.140
 dbt_tas_dbm                    2177280 14.9    1.225    1.624  193.650  290.285
 dbm_multiply                   2177280 16.9  191.062  286.655  191.062  286.655
 hybrid_alltoall_any             456649  9.3    1.279    1.312  250.986  251.652
 G_times_3c                       12144  8.0    2.963    3.739  196.501  239.468
 reshape_mm_small               2177280 14.9   94.029  133.882  174.804  238.230
 contract_to_Sigma_3c_x_G        407899  9.0    0.420    0.496  188.955  230.055
 add_V_L                         327680 10.0    3.366  215.922    3.366  215.922
 compute_QP_energies                  1  7.0    0.063    0.091  204.946  204.990
 trafo_to_k_and_nn                71492  8.0    0.205    0.240  204.788  204.831
 global_matrix_to_local_matrix   146072 10.0    2.213    2.988  146.770  165.717
 contract_to_Sigma_contract       10879  9.0    2.574    2.817   89.268  161.631
 dbt_tas_mm_2                    844300 15.9    0.386    0.823   71.783  150.054
 kpoint_density_transform            75  7.0    0.116    0.121  136.819  136.836
 dbt_tas_create_split           6503524 15.8    2.702    3.868   96.248  136.709
 dbt_tas_create_split_rows_or_c 6503524 16.8    9.816   13.926   93.545  132.915
 dbt_copy                       3271637 10.8    9.564   12.759   97.056  129.529
 get_V_tr_R                          34  9.0    0.081    0.086  128.898  128.966
 reshape_mm_compatible          2177280 14.9   12.932   18.583   89.082  124.186
 mult_W_with_Minv                    30  8.0    0.382    0.443  121.673  121.710
 fm_MWM_R_t_to_local_tensor_W_R      30  8.0    0.020    0.022  121.017  121.025
 fm_to_local_array                  934  8.1   31.176   32.991  112.497  112.716
 mp_sum_dm                       655434 10.0   97.820  110.553   97.820  110.553
 mp_waitall_1                   1607417 11.1   81.028  101.663   81.028  101.663
 dbt_tas_mm_3T                   828094 16.1    0.411    0.493   80.991  101.299
 send_data                       146072 11.0    0.093    0.103   79.758   99.256
 communicate_buffer              146072 12.0    1.643   19.536   79.665   99.162
 dbt_tas_distribution_new       5344290 15.5   38.586   50.453   73.920   97.965
 mp_cart_create                 ******* 16.2   67.143   82.063   71.454   87.800
 change_split                   2917132 15.3    4.204    6.084   57.081   84.290
 mp_sum_dm3                        1070  9.0   81.664   83.107   81.664   83.107
 dbt_reshape                    2061434 11.7   45.022   58.614   62.954   82.391
 add_rs_to_ikp                  *******  9.9   73.345   79.200   73.345   79.200
 dbt_tas_reshape                2526068 15.4    8.613   11.316   58.658   73.653
 trafo_rs_to_ikp                   5368  8.1    2.000    2.389   65.770   71.695
 add_ikp_to_rs                  ******* 10.0   63.711   69.089   63.711   69.089
 local_dbt_to_global_mat          87451  9.0    0.299    0.316   53.666   64.874
 dbt_tas_replicate              2177280 14.9   24.783   29.889   50.654   63.816
 cp_fm_start_copy_general        230400  7.3    0.971    1.738   62.526   62.663
 get_t_3c_int                   1499592  9.3    3.211    3.939   50.369   59.061
 compute_Sigma_x                      1  7.0    0.002    0.002   58.845   58.897
 rsmat_to_kp                       7032  7.2    0.050    0.054   58.305   58.421
 mp_allgather_i                  460800  8.3   55.246   56.015   55.246   56.015
 fm_add_ikp_to_rs                123904  9.0   35.663   37.680   52.353   54.964
 add_ikp_to_all_rs                 4924  8.0    1.780    2.022   48.814   53.826
 create_and_init_bs_env_for_gw        1  6.0    0.004    0.009   51.620   51.634
 mp_sum_i                       1974570 15.5   48.786   49.182   48.786   49.182
 send_sizes_1                    146072 11.0    0.084    0.097   48.411   48.803
 dbt_tas_mm_1N                   504886 15.5    0.216    0.270   39.392   47.585
 dbt_remap                       175466 11.0   15.363   17.104   41.917   46.519
 mp_cart_sub                     578049 10.0   45.618   45.701   45.618   45.701
 mp_comm_dup                    5414888 18.3   28.376   41.016   30.339   43.702
 dos_pdos_ldos                        1  5.0    0.004    0.005   37.153   37.246
 get_data                        146072 11.0    4.811   32.608    5.024   32.841
 convert_to_new_pgrid           6531840 14.9    8.714   12.506   22.793   32.671
 fm_trafo_rs_to_ikp               71492  9.0   20.856   22.245   30.431   31.912
 dbt_tas_reserve_blocks_index   8153188 15.6    4.214    5.616   23.120   30.662
 dbm_reserve_blocks             ******* 16.4   22.731   30.377   22.731   30.377
 mp_comm_split_direct           6503528 17.8   19.661   28.130   21.061   30.081
 SOC_ev                            2344  6.0    0.012    0.013   29.951   30.016
 soc                                  1  5.0    0.000    0.000   29.745   29.745
 H_KS_spinor_kp                       1  6.0    0.007    0.008   29.726   29.730
 mp_comm_free                   ******* 15.2   22.249   29.647   22.249   29.647
 compute_3c_integrals                 1  7.0    0.060    0.068   29.135   29.140
 build_3c_integrals                   1  8.0   26.387   27.514   27.621   28.772
 power                            10204  8.0    1.868    2.201   26.780   27.694
 create_and_init_bs_env               1  5.0    0.000    0.003   26.778   26.782
 compute_cfm_mo_coeff_kp_and_ei       1  6.0    0.002    0.003   26.767   26.767
 local_matrix_to_global_matrix    87451 10.0    0.163    0.175   14.550   26.076
 diag_complex                     10204  9.0   24.912   25.730   24.912   25.730
 dbt_tas_reshape_buffer_fill    2526068 16.4   21.147   25.685   21.147   25.685
 dbt_tas_reshape_buffer_obtain  2526068 16.4   12.476   16.318   19.245   24.902
 dbt_permute_index              5152960 12.1   15.833   21.663   17.990   24.723
 dbcsr_finalize                 1948963 10.9    3.721    4.236   19.574   22.941
 dbt_tas_create_new             8289739 15.2   15.658   21.972   15.658   21.972
 mp_sum_dv                        78754  8.9   16.882   21.465   16.882   21.465
 cp_cfm_heevd                      4838  7.5    0.003    0.003   20.529   20.696
 cp_cfm_heevd_base                 4838  8.5   20.526   20.693   20.526   20.693
 dbt_tas_merge                   844300 14.9    7.045   15.407    9.480   20.648
 dbm_copy                       4354560 15.9   14.079   20.164   14.079   20.164
 dbt_distribution_new_expert     643086 12.0    3.197    3.418   18.732   19.816
 add_R                          *******  9.3   11.252   13.905   16.067   19.768
 dbt_align_index                3265920 11.4    2.223    3.144   13.302   18.637
 reshape_mm_template             350932 15.5   10.885   12.198   16.570   18.358
 dbt_destroy                    9612541 10.1   14.962   16.826   16.152   18.080
 dbt_create_3c_R1_R2                 62  8.0    3.460    3.835   15.989   17.622
 mp_alltoall_i                  9059742 14.9   14.859   16.196   14.859   16.196
 dbt_create_matrix               146072 10.0    0.832    0.866   14.893   16.080
 dbt_tas_reserve_blocks_templat 3080568 14.0    3.821    5.135   11.964   15.632
 dbt_tas_mp_comm                1263034 13.0    1.337    1.804   11.272   15.488
 destroy_t_2d                        62  8.0    3.517    4.370   13.272   15.364
 dbt_tas_copy                   1043399 12.2    7.535    9.129   12.177   14.851
 dbt_create_template            4139110  9.0   13.180   14.493   13.180   14.493
 dbt_reserve_blocks_index_array 2368349 12.7    1.193    1.618   10.085   14.460
 dbt_reserve_blocks_index       2546552 13.5    1.679    2.234   10.332   14.250
 get_Minv_Vtr_Minv_R                  1  8.0    0.017    0.019   13.018   13.032
 dbcsr_merge_all                 735675 11.7    7.581   10.281   10.153   12.897
 trafo_V_xc_R_to_kp                   1  7.0    0.004    0.004   12.867   12.874
 dbcsr_filter_anytype            661712 11.0    1.508    1.579    8.167   11.477
 mp_cart_get                    ******* 15.8    7.801   11.003    7.801   11.003
 dbt_create_new                  321543 11.5    2.036    2.211   10.031   10.742
 dbt_communicate_buffer         2061434 12.7    7.650   10.388    7.650   10.388
 dbt_copy_nocomm                 306915 11.0    3.006    6.646    4.586   10.137
 dbm_add                        2177280 14.9    7.319    9.811    7.319    9.811
 is_cell_in_index_to_cell       *******  9.7    8.500    9.734    8.500    9.734
 mp_comm_size                   ******* 16.1    7.010    9.719    7.010    9.719
 set_blocks                       87451 11.0    1.979    5.097    4.084    9.480
 send_sizes_2                    146072 11.0    0.080    0.088    7.524    7.871
 mp_comm_rank                   ******* 16.1    5.400    7.539    5.400    7.539
 dbm_filter                     3434377 14.7    5.045    7.328    5.045    7.328
 mp_isend_dv                    ******* 12.1    0.392    7.327    0.392    7.327
 dbt_tas_communicate_buffer     4703348 17.2    4.535    7.097    4.535    7.097
 rskp_transform                   83832  7.1    0.146    7.089    0.146    7.089
 compute_proj_mo_on_kind           1172  6.0    0.013    0.016    6.967    7.056
 mp_isend_im2                   ******* 12.9    0.260    7.036    0.260    7.036
 dbt_pgrid_create_expert         643089 13.0    0.702    0.791    5.824    6.861
 cp_cfm_geeig_canon                1172  7.0    0.004    0.005    6.832    6.838
 comm_data                        87451 11.0    0.186    1.240    1.673    6.341
 dbt_tas_reshape_communicate_bu 2526068 16.4    1.062    1.638    3.978    5.705
 heuristic_RI_regularization          1  7.0    0.000    0.001    5.563    5.564
 dbt_nd_mp_comm                  321538 11.5    0.416    0.464    4.480    5.476
 comm_size                        87451 11.0    0.077    0.085    5.055    5.358
 qs_ks_update_qs_env                 75  5.0    0.000    0.000    5.176    5.218
 dbcsr_work_create              1192324 10.2    3.216    3.658    4.615    5.113
 dbcsr_create_new               1685600  9.8    3.674    4.062    4.594    4.992
 dbcsr_iterator_start           4255465 10.8    3.808    3.961    4.584    4.833
 mp_waitall_2                    174902 12.0    1.412    4.769    1.412    4.769
 qs_ks_build_kohn_sham_matrix        78  7.0    0.023    0.031    4.714    4.758
 rebuild_ks_matrix                   75  6.0    0.000    0.000    4.537    4.579
 mp_bcast_iv                     921749  8.3    4.315    4.560    4.315    4.560
 dbm_scale                      3133456 14.0    3.143    4.477    3.143    4.477
 mp_sum_l                       ******* 14.9    3.125    4.467    3.125    4.467
 dbt_tas_reshape_get_coord      2526068 16.4    3.109    4.275    3.109    4.275
 transfer_pw2rs                     391 10.6    0.002    0.003    3.942    4.026
 build_2c_integrals                  34 10.0    0.059    2.022    0.386    3.943
 sum_up_and_integrate                78  8.0    0.003    0.008    0.593    3.917
 integrate_v_rspace                  78  9.0    0.001    0.006    0.590    3.910
 dbt_create_2c_R                     98  8.0    2.221    3.546    2.532    3.848
 transfer_pw2rs_250                 157 11.0    0.128    0.146    3.746    3.832
 dbcsr_work_destroy_all         1192324 11.1    2.237    2.630    3.221    3.763
 copy_fm_to_dbcsr_bc             223071 10.3    1.028    1.069    3.627    3.754
 transfer_rs2pw                     384  8.4    0.002    0.003    3.523    3.663
 write_kpoints_restart               75  5.0    0.003    0.205    3.604    3.623
 fill_buffer                      87451 11.0    2.397    3.491    2.523    3.618
 integrate_vhg0_rspace               78  8.0    0.001    0.002    3.520    3.599
 transfer_rs2pw_250                 156 10.0    0.139    0.162    3.361    3.521
 qs_rho_update_rho_low               76  5.0    0.001    0.001    3.507    3.512
 calculate_rho_elec                  76  6.0    0.002    0.004    3.504    3.506
 dbt_reserve_blocks_template     306915 12.0    0.276    0.643    1.580    3.492
 mp_sendrecv_dv                   97920 10.4    3.340    3.476    3.340    3.476
 grid_integrate_task_list            78 10.0    0.037    3.357    0.037    3.357
 dbcsr_data_release             ******* 11.7    2.933    3.251    2.933    3.251
 density_rs2pw                       76  7.0    0.001    0.002    3.190    3.246
 transform_dmat                   38400  8.0    0.063    3.244    0.063    3.244
 grid_collocate_task_list            76  7.0    0.308    2.941    0.308    2.941
 dbcsr_iterator_stop            4255465 10.8    2.192    2.327    2.734    2.887
 dbcsr_data_new                 ******* 11.1    2.620    2.779    2.620    2.779
 dbt_tas_replicate_communicate_ 1332980 15.9    0.657    0.786    1.877    2.753
 dbcsr_destroy                  1567105  9.6    1.335    1.387    2.605    2.685
 dbt_copy_matrix_to_tensor       146072 10.0    0.838    0.902    2.517    2.611
 reserve_blocks                  146072 11.0    0.350    0.376    2.277    2.483
 dbt_tas_reshape_alltoall       2526068 16.4    0.982    1.354    1.852    2.483
 mp_bcast_i                     6504027 17.8    1.360    2.052    1.360    2.052
 mp_bcast_im                     460800  8.3    1.711    1.939    1.711    1.939
 mp_cart_rank                   5332768 15.9    1.555    1.854    1.555    1.854
 dbt_distribution_destroy        643086 12.0    1.349    1.482    1.692    1.849
 tree_to_linear_d                590431 12.6    1.555    1.721    1.555    1.721
 mp_dims_create                 5344287 14.1    1.246    1.719    1.246    1.719
 dbcsr_reserve_blocks            594019 12.2    0.981    1.337    1.239    1.660
 copy_dbcsr_to_fm_bc             288985  9.0    0.718    0.768    1.538    1.586
 ab_contract                    2538216 11.0    0.018    1.579    0.018    1.579
 dbcsr_set                      1587531 10.4    0.751    0.798    1.362    1.529
 compute_V_xc                         1  7.0    0.000    0.000    1.518    1.520
 dbt_tas_merge_communicate_buff  844300 15.9    0.240    0.497    0.640    1.486
 write_SOC_eigenvalues              148  6.0    0.006    1.482    0.006    1.482
 quick_finalize                  456649 10.3    0.668    0.868    1.094    1.473
 setup_parallelization_Delta_R        1  7.0    0.000    0.000    1.389    1.390
 compute_n_tensor_ops_Delta_R         1  8.0    0.297    0.613    1.385    1.385
 dbt_reserve_blocks_matrix_to_t  146072 11.0    0.400    0.420    1.343    1.383
 mp_sum_iv                         2368  9.0    0.793    1.370    0.793    1.370
 get_coord                        87451 11.0    0.619    0.906    1.053    1.336
 dbt_buffer_get_index           4703348 16.7    0.850    1.199    0.850    1.199
 dbt_tas_replicate_alltoall     1332980 15.9    0.563    0.692    0.966    1.175
 dbcsr_copy                      195494 10.0    0.373    0.491    0.924    1.113
 analyt_conti_and_print            1172  8.0    0.006    1.061    0.059    1.112
 cp_fm_write_unformatted            796  6.0    1.024    1.089    1.025    1.096
 fill_mat_local                  146072 11.0    0.824    0.920    0.998    1.094
 mp_max_i                       4229987 11.3    0.785    1.094    0.785    1.094
 dbcsr_reserve_all_blocks        310522 11.5    0.247    0.264    0.815    1.083
 dbt_copy_tensor_to_matrix        87451 10.0    0.301    0.397    0.935    1.051
 alloc_block_3c                       1  9.0    0.218    0.227    0.951    1.020
 setup_cells_3c                       1  7.0    0.021    0.022    0.937    0.942
 dbcsr_distribution_new          512095 10.0    0.667    0.933    0.667    0.933
 build_3c_integral_block           4052  8.0    0.316    0.531    0.718    0.917
 dbcsr_iterator_seek            4255465 11.8    0.776    0.915    0.776    0.915
 dbt_tas_merge_alltoall          844300 15.9    0.249    0.536    0.441    0.912
 add_cfm_submat                   11720  7.0    0.044    0.046    0.574    0.827
 dbcsr_zero                     1587531 11.4    0.611    0.796    0.611    0.796
 cp_fm_to_fm_submat               23440  8.0    0.514    0.767    0.514    0.767
 dbcsr_sort_indices             1212343 12.6    0.364    0.734    0.364    0.734
 create_qs_kind_set                   1  2.0    0.000    0.001    0.688    0.723
 read_qs_kind                         2  3.0    0.318    0.351    0.687    0.723
 add_to_DOS_PDOS                   4688  6.5    0.629    0.652    0.629    0.652
 dbcsr_dot                        29851  8.0    0.053    0.063    0.638    0.649
 mp_sum_d                         31132  8.9    0.607    0.641    0.607    0.641
 evaluate_core_matrix_traces         75  6.0    0.000    0.000    0.638    0.640
 calculate_ptrace_kp                150  7.0    0.010    0.010    0.638    0.640
 mp_irecv_im2                   3257578 12.9    0.241    0.619    0.241    0.619
 dbcsr_make_index_exist         1685600 10.8    0.584    0.618    0.584    0.618
 get_sizes                       146072 11.0    0.355    0.396    0.517    0.561
 potential_pw2rs                     78 10.0    0.001    0.001    0.552    0.556
 dbcsr_copy_into_existing         76999 10.0    0.207    0.311    0.426    0.546
 -------------------------------------------------------------------------------

 The number of warnings for this run is : 1
 
 -------------------------------------------------------------------------------
  **** **** ******  **  PROGRAM ENDED AT                 2025-07-15 12:42:20.982
 ***** ** ***  *** **   PROGRAM RAN ON                                  n2cn0715
 **    ****   ******    PROGRAM RAN BY                                  metdyn02
 ***** **    ** ** **   PROGRAM PROCESS ID                               4123802
  **** **  *******  **  PROGRAM STOPPED IN /scratch/hpc-prf-metdyn/metdyn02_Remi
                                           /05_TMD_new/1_MoS2_/SZVnonaug
