 DBCSR| CPU Multiplication driver                                           BLAS (U)
 DBCSR| Multrec recursion limit                                              512 (U)
 DBCSR| Multiplication stack size                                           1000 (D)
 DBCSR| Maximum elements for images                                    UNLIMITED (U)
 DBCSR| Multiplicative factor virtual images                                   1 (U)
 DBCSR| Use multiplication densification                                       T (D)
 DBCSR| Multiplication size stacks                                             3 (U)
 DBCSR| Use memory pool for CPU allocation                                     F (U)
 DBCSR| Number of 3D layers                                               SINGLE (U)
 DBCSR| Use MPI memory allocation                                              F (U)
 DBCSR| Use RMA algorithm                                                      F (U)
 DBCSR| Use Communication thread                                               T (U)
 DBCSR| Communication thread load                                             60 (D)
 DBCSR| MPI: My process id                                                     0
 DBCSR| MPI: Number of processes                                             192
 DBCSR| OMP: Current number of threads                                         8
 DBCSR| OMP: Max number of threads                                             8
 DBCSR| Split modifier for TAS multiplication algorithm                  1.0E+00 (U)


  **** **** ******  **  PROGRAM STARTED AT               2024-12-14 10:01:31.253
 ***** ** ***  *** **   PROGRAM STARTED ON                          f01r01c01s02
 **    ****   ******    PROGRAM STARTED BY                               di38fab
 ***** **    ** ** **   PROGRAM PROCESS ID                                725371
  **** **  *******  **  PROGRAM STARTED IN /hppfs/scratch/04/di38fab/04_TMD/3_WS
                                           2__

 CP2K| version string:                 CP2K version 2024.2 (Development Version)
 CP2K| source code revision number:                                  git:9b99305
 CP2K| cp2kflags: omp libint fftw3 libxc parallel scalapack max_contr=4         
 CP2K| is freely available from                            https://www.cp2k.org/
 CP2K| Program compiled at                         Fri Aug 30 17:20:17 CEST 2024
 CP2K| Program compiled on                                               login04
 CP2K| Program compiled for                                        Supermuc-foss
 CP2K| Data directory path                  /hppfs/work/pn36zo/di38fab/cp2k/data
 CP2K| Input file name                                                    GW.inp

 GLOBAL| Force Environment number                                              1
 GLOBAL| Basis set file name            ../BASIS_AUG_MOLOPT/BASIS_GTH_MOLOPT_AUG
 GLOBAL| Potential file name            /hppfs/work/pn36zo/di38fab/cp2k/data/GTH
 GLOBAL| MM Potential file name                                     MM_POTENTIAL
 GLOBAL| Coordinate file name                                      __STD_INPUT__
 GLOBAL| Method name                                                        CP2K
 GLOBAL| Project name                                                        WS2
 GLOBAL| Run type                                                         ENERGY
 GLOBAL| FFT library                                                       FFTW3
 GLOBAL| Diagonalization library                                       ScaLAPACK
 GLOBAL| DGEMM library                                                      BLAS
 GLOBAL| Orthonormality check for eigenvectors                          DISABLED
 GLOBAL| Matrix multiplication library                                 ScaLAPACK
 GLOBAL| All-to-all communication in single precision                          F
 GLOBAL| FFTs using library dependent lengths                                  F
 GLOBAL| Grid backend                                                       AUTO
 GLOBAL| Global print level                                               MEDIUM
 GLOBAL| MPI I/O enabled                                                       T
 GLOBAL| Total number of message passing processes                           192
 GLOBAL| Number of threads for this process                                    8
 GLOBAL| This output is from process                                           0
 GLOBAL| Stack size for threads created by OpenMP (OMP_STACKSIZE)        default
 GLOBAL| CPU model name             Intel(R) Xeon(R) Platinum 8174 CPU @ 3.10GHz

 MEMORY| system memory details [Kb]
 MEMORY|                        rank 0           min           max       average
 MEMORY| MemTotal            792068892     792068880     792069320     792068908
 MEMORY| MemFree             778945492     778556512     779437668     778825890
 MEMORY| Buffers                     0             0             0             0
 MEMORY| Cached                2284908       2284908       2335368       2306209
 MEMORY| Slab                  1092108        973108       1154268       1105644
 MEMORY| SReclaimable           240784        216676        258524        244795
 MEMORY| MemLikelyFree       781471184     781133976     781948540     781376895


 *** Fundamental physical constants (SI units) ***

 *** Literature: B. J. Mohr and B. N. Taylor,
 ***             CODATA recommended values of the fundamental physical
 ***             constants: 2006, Web Version 5.1
 ***             http://physics.nist.gov/constants

 Speed of light in vacuum [m/s]                             2.99792458000000E+08
 Magnetic constant or permeability of vacuum [N/A**2]       1.25663706143592E-06
 Electric constant or permittivity of vacuum [F/m]          8.85418781762039E-12
 Planck constant (h) [J*s]                                  6.62606896000000E-34
 Planck constant (h-bar) [J*s]                              1.05457162825177E-34
 Elementary charge [C]                                      1.60217648700000E-19
 Electron mass [kg]                                         9.10938215000000E-31
 Electron g factor [ ]                                     -2.00231930436220E+00
 Proton mass [kg]                                           1.67262163700000E-27
 Fine-structure constant                                    7.29735253760000E-03
 Rydberg constant [1/m]                                     1.09737315685270E+07
 Avogadro constant [1/mol]                                  6.02214179000000E+23
 Boltzmann constant [J/K]                                   1.38065040000000E-23
 Atomic mass unit [kg]                                      1.66053878200000E-27
 Bohr radius [m]                                            5.29177208590000E-11

 *** Conversion factors ***

 [u] -> [a.u.]                                              1.82288848426455E+03
 [Angstrom] -> [Bohr] = [a.u.]                              1.88972613288564E+00
 [a.u.] = [Bohr] -> [Angstrom]                              5.29177208590000E-01
 [a.u.] -> [s]                                              2.41888432650478E-17
 [a.u.] -> [fs]                                             2.41888432650478E-02
 [a.u.] -> [J]                                              4.35974393937059E-18
 [a.u.] -> [N]                                              8.23872205491840E-08
 [a.u.] -> [K]                                              3.15774647902944E+05
 [a.u.] -> [kJ/mol]                                         2.62549961709828E+03
 [a.u.] -> [kcal/mol]                                       6.27509468713739E+02
 [a.u.] -> [Pa]                                             2.94210107994716E+13
 [a.u.] -> [bar]                                            2.94210107994716E+08
 [a.u.] -> [atm]                                            2.90362800883016E+08
 [a.u.] -> [eV]                                             2.72113838565563E+01
 [a.u.] -> [Hz]                                             6.57968392072181E+15
 [a.u.] -> [1/cm] (wave numbers)                            2.19474631370540E+05
 [a.u./Bohr**2] -> [1/cm]                                   5.14048714338585E+03
 

 CELL_TOP| Volume [angstrom^3]:                                       131.860110
 CELL_TOP| Vector a [angstrom     3.186     0.000     0.000   |a| =     3.186000
 CELL_TOP| Vector b [angstrom    -1.593     2.759     0.000   |b| =     3.186000
 CELL_TOP| Vector c [angstrom     0.000     0.000    15.000   |c| =    15.000000
 CELL_TOP| Angle (b,c), alpha [degree]:                                90.000000
 CELL_TOP| Angle (a,c), beta  [degree]:                                90.000000
 CELL_TOP| Angle (a,b), gamma [degree]:                               120.000000
 CELL_TOP| Numerically orthorhombic:                                          NO
 CELL_TOP| Periodicity                                                        XY

 GENERATE|  Preliminary Number of Bonds generated:                             0
 GENERATE|  Achieved consistency in connectivity generation.

 CELL| Volume [angstrom^3]:                                           131.860110
 CELL| Vector a [angstrom]:       3.186     0.000     0.000   |a| =     3.186000
 CELL| Vector b [angstrom]:      -1.593     2.759     0.000   |b| =     3.186000
 CELL| Vector c [angstrom]:       0.000     0.000    15.000   |c| =    15.000000
 CELL| Angle (b,c), alpha [degree]:                                    90.000000
 CELL| Angle (a,c), beta  [degree]:                                    90.000000
 CELL| Angle (a,b), gamma [degree]:                                   120.000000
 CELL| Numerically orthorhombic:                                              NO
 CELL| Periodicity                                                            XY

 CELL_REF| Volume [angstrom^3]:                                       131.860110
 CELL_REF| Vector a [angstrom     3.186     0.000     0.000   |a| =     3.186000
 CELL_REF| Vector b [angstrom    -1.593     2.759     0.000   |b| =     3.186000
 CELL_REF| Vector c [angstrom     0.000     0.000    15.000   |c| =    15.000000
 CELL_REF| Angle (b,c), alpha [degree]:                                90.000000
 CELL_REF| Angle (a,c), beta  [degree]:                                90.000000
 CELL_REF| Angle (a,b), gamma [degree]:                               120.000000
 CELL_REF| Numerically orthorhombic:                                          NO
 CELL_REF| Periodicity                                                        XY

 *** WARNING in cryssym.F:180 :: Symmetry library SPGLIB not available ***


 *******************************************************************************
                                    Kpoints
 *******************************************************************************
 BRILLOUIN| K-point scheme                                        Monkhorst-Pack
 BRILLOUIN| K-Point grid                                            32   32    1
 BRILLOUIN| Accuracy in Symmetry determination                      0.100000E-05
 BRILLOUIN| K-Point point group symmetrization                               OFF
 BRILLOUIN| Wavefunction type                                            COMPLEX
 BRILLOUIN| List of Kpoints [2 Pi/Bohr]                                      512
 BRILLOUIN| Number           Weight            X              Y              Z
 BRILLOUIN|     1           0.00195       -0.48438       -0.48438        0.00000
 BRILLOUIN|     2           0.00195       -0.48438       -0.45312        0.00000
 BRILLOUIN|     3           0.00195       -0.48438       -0.42188        0.00000
 BRILLOUIN|     4           0.00195       -0.48438       -0.39062        0.00000
 BRILLOUIN|     5           0.00195       -0.48438       -0.35938        0.00000
 BRILLOUIN|     6           0.00195       -0.48438       -0.32812        0.00000
 BRILLOUIN|     7           0.00195       -0.48438       -0.29688        0.00000
 BRILLOUIN|     8           0.00195       -0.48438       -0.26562        0.00000
 BRILLOUIN|     9           0.00195       -0.48438       -0.23438        0.00000
 BRILLOUIN|    10           0.00195       -0.48438       -0.20312        0.00000
 BRILLOUIN|    11           0.00195       -0.48438       -0.17188        0.00000
 BRILLOUIN|    12           0.00195       -0.48438       -0.14062        0.00000
 BRILLOUIN|    13           0.00195       -0.48438       -0.10938        0.00000
 BRILLOUIN|    14           0.00195       -0.48438       -0.07812        0.00000
 BRILLOUIN|    15           0.00195       -0.48438       -0.04688        0.00000
 BRILLOUIN|    16           0.00195       -0.48438       -0.01562        0.00000
 BRILLOUIN|    17           0.00195       -0.48438        0.01562        0.00000
 BRILLOUIN|    18           0.00195       -0.48438        0.04688        0.00000
 BRILLOUIN|    19           0.00195       -0.48438        0.07812        0.00000
 BRILLOUIN|    20           0.00195       -0.48438        0.10938        0.00000
 BRILLOUIN|    21           0.00195       -0.48438        0.14062        0.00000
 BRILLOUIN|    22           0.00195       -0.48438        0.17188        0.00000
 BRILLOUIN|    23           0.00195       -0.48438        0.20312        0.00000
 BRILLOUIN|    24           0.00195       -0.48438        0.23438        0.00000
 BRILLOUIN|    25           0.00195       -0.48438        0.26562        0.00000
 BRILLOUIN|    26           0.00195       -0.48438        0.29688        0.00000
 BRILLOUIN|    27           0.00195       -0.48438        0.32812        0.00000
 BRILLOUIN|    28           0.00195       -0.48438        0.35938        0.00000
 BRILLOUIN|    29           0.00195       -0.48438        0.39062        0.00000
 BRILLOUIN|    30           0.00195       -0.48438        0.42188        0.00000
 BRILLOUIN|    31           0.00195       -0.48438        0.45312        0.00000
 BRILLOUIN|    32           0.00195       -0.48438        0.48438        0.00000
 BRILLOUIN|    33           0.00195       -0.45312       -0.48438        0.00000
 BRILLOUIN|    34           0.00195       -0.45312       -0.45312        0.00000
 BRILLOUIN|    35           0.00195       -0.45312       -0.42188        0.00000
 BRILLOUIN|    36           0.00195       -0.45312       -0.39062        0.00000
 BRILLOUIN|    37           0.00195       -0.45312       -0.35938        0.00000
 BRILLOUIN|    38           0.00195       -0.45312       -0.32812        0.00000
 BRILLOUIN|    39           0.00195       -0.45312       -0.29688        0.00000
 BRILLOUIN|    40           0.00195       -0.45312       -0.26562        0.00000
 BRILLOUIN|    41           0.00195       -0.45312       -0.23438        0.00000
 BRILLOUIN|    42           0.00195       -0.45312       -0.20312        0.00000
 BRILLOUIN|    43           0.00195       -0.45312       -0.17188        0.00000
 BRILLOUIN|    44           0.00195       -0.45312       -0.14062        0.00000
 BRILLOUIN|    45           0.00195       -0.45312       -0.10938        0.00000
 BRILLOUIN|    46           0.00195       -0.45312       -0.07812        0.00000
 BRILLOUIN|    47           0.00195       -0.45312       -0.04688        0.00000
 BRILLOUIN|    48           0.00195       -0.45312       -0.01562        0.00000
 BRILLOUIN|    49           0.00195       -0.45312        0.01562        0.00000
 BRILLOUIN|    50           0.00195       -0.45312        0.04688        0.00000
 BRILLOUIN|    51           0.00195       -0.45312        0.07812        0.00000
 BRILLOUIN|    52           0.00195       -0.45312        0.10938        0.00000
 BRILLOUIN|    53           0.00195       -0.45312        0.14062        0.00000
 BRILLOUIN|    54           0.00195       -0.45312        0.17188        0.00000
 BRILLOUIN|    55           0.00195       -0.45312        0.20312        0.00000
 BRILLOUIN|    56           0.00195       -0.45312        0.23438        0.00000
 BRILLOUIN|    57           0.00195       -0.45312        0.26562        0.00000
 BRILLOUIN|    58           0.00195       -0.45312        0.29688        0.00000
 BRILLOUIN|    59           0.00195       -0.45312        0.32812        0.00000
 BRILLOUIN|    60           0.00195       -0.45312        0.35938        0.00000
 BRILLOUIN|    61           0.00195       -0.45312        0.39062        0.00000
 BRILLOUIN|    62           0.00195       -0.45312        0.42188        0.00000
 BRILLOUIN|    63           0.00195       -0.45312        0.45312        0.00000
 BRILLOUIN|    64           0.00195       -0.45312        0.48438        0.00000
 BRILLOUIN|    65           0.00195       -0.42188       -0.48438        0.00000
 BRILLOUIN|    66           0.00195       -0.42188       -0.45312        0.00000
 BRILLOUIN|    67           0.00195       -0.42188       -0.42188        0.00000
 BRILLOUIN|    68           0.00195       -0.42188       -0.39062        0.00000
 BRILLOUIN|    69           0.00195       -0.42188       -0.35938        0.00000
 BRILLOUIN|    70           0.00195       -0.42188       -0.32812        0.00000
 BRILLOUIN|    71           0.00195       -0.42188       -0.29688        0.00000
 BRILLOUIN|    72           0.00195       -0.42188       -0.26562        0.00000
 BRILLOUIN|    73           0.00195       -0.42188       -0.23438        0.00000
 BRILLOUIN|    74           0.00195       -0.42188       -0.20312        0.00000
 BRILLOUIN|    75           0.00195       -0.42188       -0.17188        0.00000
 BRILLOUIN|    76           0.00195       -0.42188       -0.14062        0.00000
 BRILLOUIN|    77           0.00195       -0.42188       -0.10938        0.00000
 BRILLOUIN|    78           0.00195       -0.42188       -0.07812        0.00000
 BRILLOUIN|    79           0.00195       -0.42188       -0.04688        0.00000
 BRILLOUIN|    80           0.00195       -0.42188       -0.01562        0.00000
 BRILLOUIN|    81           0.00195       -0.42188        0.01562        0.00000
 BRILLOUIN|    82           0.00195       -0.42188        0.04688        0.00000
 BRILLOUIN|    83           0.00195       -0.42188        0.07812        0.00000
 BRILLOUIN|    84           0.00195       -0.42188        0.10938        0.00000
 BRILLOUIN|    85           0.00195       -0.42188        0.14062        0.00000
 BRILLOUIN|    86           0.00195       -0.42188        0.17188        0.00000
 BRILLOUIN|    87           0.00195       -0.42188        0.20312        0.00000
 BRILLOUIN|    88           0.00195       -0.42188        0.23438        0.00000
 BRILLOUIN|    89           0.00195       -0.42188        0.26562        0.00000
 BRILLOUIN|    90           0.00195       -0.42188        0.29688        0.00000
 BRILLOUIN|    91           0.00195       -0.42188        0.32812        0.00000
 BRILLOUIN|    92           0.00195       -0.42188        0.35938        0.00000
 BRILLOUIN|    93           0.00195       -0.42188        0.39062        0.00000
 BRILLOUIN|    94           0.00195       -0.42188        0.42188        0.00000
 BRILLOUIN|    95           0.00195       -0.42188        0.45312        0.00000
 BRILLOUIN|    96           0.00195       -0.42188        0.48438        0.00000
 BRILLOUIN|    97           0.00195       -0.39062       -0.48438        0.00000
 BRILLOUIN|    98           0.00195       -0.39062       -0.45312        0.00000
 BRILLOUIN|    99           0.00195       -0.39062       -0.42188        0.00000
 BRILLOUIN|   100           0.00195       -0.39062       -0.39062        0.00000
 BRILLOUIN|   101           0.00195       -0.39062       -0.35938        0.00000
 BRILLOUIN|   102           0.00195       -0.39062       -0.32812        0.00000
 BRILLOUIN|   103           0.00195       -0.39062       -0.29688        0.00000
 BRILLOUIN|   104           0.00195       -0.39062       -0.26562        0.00000
 BRILLOUIN|   105           0.00195       -0.39062       -0.23438        0.00000
 BRILLOUIN|   106           0.00195       -0.39062       -0.20312        0.00000
 BRILLOUIN|   107           0.00195       -0.39062       -0.17188        0.00000
 BRILLOUIN|   108           0.00195       -0.39062       -0.14062        0.00000
 BRILLOUIN|   109           0.00195       -0.39062       -0.10938        0.00000
 BRILLOUIN|   110           0.00195       -0.39062       -0.07812        0.00000
 BRILLOUIN|   111           0.00195       -0.39062       -0.04688        0.00000
 BRILLOUIN|   112           0.00195       -0.39062       -0.01562        0.00000
 BRILLOUIN|   113           0.00195       -0.39062        0.01562        0.00000
 BRILLOUIN|   114           0.00195       -0.39062        0.04688        0.00000
 BRILLOUIN|   115           0.00195       -0.39062        0.07812        0.00000
 BRILLOUIN|   116           0.00195       -0.39062        0.10938        0.00000
 BRILLOUIN|   117           0.00195       -0.39062        0.14062        0.00000
 BRILLOUIN|   118           0.00195       -0.39062        0.17188        0.00000
 BRILLOUIN|   119           0.00195       -0.39062        0.20312        0.00000
 BRILLOUIN|   120           0.00195       -0.39062        0.23438        0.00000
 BRILLOUIN|   121           0.00195       -0.39062        0.26562        0.00000
 BRILLOUIN|   122           0.00195       -0.39062        0.29688        0.00000
 BRILLOUIN|   123           0.00195       -0.39062        0.32812        0.00000
 BRILLOUIN|   124           0.00195       -0.39062        0.35938        0.00000
 BRILLOUIN|   125           0.00195       -0.39062        0.39062        0.00000
 BRILLOUIN|   126           0.00195       -0.39062        0.42188        0.00000
 BRILLOUIN|   127           0.00195       -0.39062        0.45312        0.00000
 BRILLOUIN|   128           0.00195       -0.39062        0.48438        0.00000
 BRILLOUIN|   129           0.00195       -0.35938       -0.48438        0.00000
 BRILLOUIN|   130           0.00195       -0.35938       -0.45312        0.00000
 BRILLOUIN|   131           0.00195       -0.35938       -0.42188        0.00000
 BRILLOUIN|   132           0.00195       -0.35938       -0.39062        0.00000
 BRILLOUIN|   133           0.00195       -0.35938       -0.35938        0.00000
 BRILLOUIN|   134           0.00195       -0.35938       -0.32812        0.00000
 BRILLOUIN|   135           0.00195       -0.35938       -0.29688        0.00000
 BRILLOUIN|   136           0.00195       -0.35938       -0.26562        0.00000
 BRILLOUIN|   137           0.00195       -0.35938       -0.23438        0.00000
 BRILLOUIN|   138           0.00195       -0.35938       -0.20312        0.00000
 BRILLOUIN|   139           0.00195       -0.35938       -0.17188        0.00000
 BRILLOUIN|   140           0.00195       -0.35938       -0.14062        0.00000
 BRILLOUIN|   141           0.00195       -0.35938       -0.10938        0.00000
 BRILLOUIN|   142           0.00195       -0.35938       -0.07812        0.00000
 BRILLOUIN|   143           0.00195       -0.35938       -0.04688        0.00000
 BRILLOUIN|   144           0.00195       -0.35938       -0.01562        0.00000
 BRILLOUIN|   145           0.00195       -0.35938        0.01562        0.00000
 BRILLOUIN|   146           0.00195       -0.35938        0.04688        0.00000
 BRILLOUIN|   147           0.00195       -0.35938        0.07812        0.00000
 BRILLOUIN|   148           0.00195       -0.35938        0.10938        0.00000
 BRILLOUIN|   149           0.00195       -0.35938        0.14062        0.00000
 BRILLOUIN|   150           0.00195       -0.35938        0.17188        0.00000
 BRILLOUIN|   151           0.00195       -0.35938        0.20312        0.00000
 BRILLOUIN|   152           0.00195       -0.35938        0.23438        0.00000
 BRILLOUIN|   153           0.00195       -0.35938        0.26562        0.00000
 BRILLOUIN|   154           0.00195       -0.35938        0.29688        0.00000
 BRILLOUIN|   155           0.00195       -0.35938        0.32812        0.00000
 BRILLOUIN|   156           0.00195       -0.35938        0.35938        0.00000
 BRILLOUIN|   157           0.00195       -0.35938        0.39062        0.00000
 BRILLOUIN|   158           0.00195       -0.35938        0.42188        0.00000
 BRILLOUIN|   159           0.00195       -0.35938        0.45312        0.00000
 BRILLOUIN|   160           0.00195       -0.35938        0.48438        0.00000
 BRILLOUIN|   161           0.00195       -0.32812       -0.48438        0.00000
 BRILLOUIN|   162           0.00195       -0.32812       -0.45312        0.00000
 BRILLOUIN|   163           0.00195       -0.32812       -0.42188        0.00000
 BRILLOUIN|   164           0.00195       -0.32812       -0.39062        0.00000
 BRILLOUIN|   165           0.00195       -0.32812       -0.35938        0.00000
 BRILLOUIN|   166           0.00195       -0.32812       -0.32812        0.00000
 BRILLOUIN|   167           0.00195       -0.32812       -0.29688        0.00000
 BRILLOUIN|   168           0.00195       -0.32812       -0.26562        0.00000
 BRILLOUIN|   169           0.00195       -0.32812       -0.23438        0.00000
 BRILLOUIN|   170           0.00195       -0.32812       -0.20312        0.00000
 BRILLOUIN|   171           0.00195       -0.32812       -0.17188        0.00000
 BRILLOUIN|   172           0.00195       -0.32812       -0.14062        0.00000
 BRILLOUIN|   173           0.00195       -0.32812       -0.10938        0.00000
 BRILLOUIN|   174           0.00195       -0.32812       -0.07812        0.00000
 BRILLOUIN|   175           0.00195       -0.32812       -0.04688        0.00000
 BRILLOUIN|   176           0.00195       -0.32812       -0.01562        0.00000
 BRILLOUIN|   177           0.00195       -0.32812        0.01562        0.00000
 BRILLOUIN|   178           0.00195       -0.32812        0.04688        0.00000
 BRILLOUIN|   179           0.00195       -0.32812        0.07812        0.00000
 BRILLOUIN|   180           0.00195       -0.32812        0.10938        0.00000
 BRILLOUIN|   181           0.00195       -0.32812        0.14062        0.00000
 BRILLOUIN|   182           0.00195       -0.32812        0.17188        0.00000
 BRILLOUIN|   183           0.00195       -0.32812        0.20312        0.00000
 BRILLOUIN|   184           0.00195       -0.32812        0.23438        0.00000
 BRILLOUIN|   185           0.00195       -0.32812        0.26562        0.00000
 BRILLOUIN|   186           0.00195       -0.32812        0.29688        0.00000
 BRILLOUIN|   187           0.00195       -0.32812        0.32812        0.00000
 BRILLOUIN|   188           0.00195       -0.32812        0.35938        0.00000
 BRILLOUIN|   189           0.00195       -0.32812        0.39062        0.00000
 BRILLOUIN|   190           0.00195       -0.32812        0.42188        0.00000
 BRILLOUIN|   191           0.00195       -0.32812        0.45312        0.00000
 BRILLOUIN|   192           0.00195       -0.32812        0.48438        0.00000
 BRILLOUIN|   193           0.00195       -0.29688       -0.48438        0.00000
 BRILLOUIN|   194           0.00195       -0.29688       -0.45312        0.00000
 BRILLOUIN|   195           0.00195       -0.29688       -0.42188        0.00000
 BRILLOUIN|   196           0.00195       -0.29688       -0.39062        0.00000
 BRILLOUIN|   197           0.00195       -0.29688       -0.35938        0.00000
 BRILLOUIN|   198           0.00195       -0.29688       -0.32812        0.00000
 BRILLOUIN|   199           0.00195       -0.29688       -0.29688        0.00000
 BRILLOUIN|   200           0.00195       -0.29688       -0.26562        0.00000
 BRILLOUIN|   201           0.00195       -0.29688       -0.23438        0.00000
 BRILLOUIN|   202           0.00195       -0.29688       -0.20312        0.00000
 BRILLOUIN|   203           0.00195       -0.29688       -0.17188        0.00000
 BRILLOUIN|   204           0.00195       -0.29688       -0.14062        0.00000
 BRILLOUIN|   205           0.00195       -0.29688       -0.10938        0.00000
 BRILLOUIN|   206           0.00195       -0.29688       -0.07812        0.00000
 BRILLOUIN|   207           0.00195       -0.29688       -0.04688        0.00000
 BRILLOUIN|   208           0.00195       -0.29688       -0.01562        0.00000
 BRILLOUIN|   209           0.00195       -0.29688        0.01562        0.00000
 BRILLOUIN|   210           0.00195       -0.29688        0.04688        0.00000
 BRILLOUIN|   211           0.00195       -0.29688        0.07812        0.00000
 BRILLOUIN|   212           0.00195       -0.29688        0.10938        0.00000
 BRILLOUIN|   213           0.00195       -0.29688        0.14062        0.00000
 BRILLOUIN|   214           0.00195       -0.29688        0.17188        0.00000
 BRILLOUIN|   215           0.00195       -0.29688        0.20312        0.00000
 BRILLOUIN|   216           0.00195       -0.29688        0.23438        0.00000
 BRILLOUIN|   217           0.00195       -0.29688        0.26562        0.00000
 BRILLOUIN|   218           0.00195       -0.29688        0.29688        0.00000
 BRILLOUIN|   219           0.00195       -0.29688        0.32812        0.00000
 BRILLOUIN|   220           0.00195       -0.29688        0.35938        0.00000
 BRILLOUIN|   221           0.00195       -0.29688        0.39062        0.00000
 BRILLOUIN|   222           0.00195       -0.29688        0.42188        0.00000
 BRILLOUIN|   223           0.00195       -0.29688        0.45312        0.00000
 BRILLOUIN|   224           0.00195       -0.29688        0.48438        0.00000
 BRILLOUIN|   225           0.00195       -0.26562       -0.48438        0.00000
 BRILLOUIN|   226           0.00195       -0.26562       -0.45312        0.00000
 BRILLOUIN|   227           0.00195       -0.26562       -0.42188        0.00000
 BRILLOUIN|   228           0.00195       -0.26562       -0.39062        0.00000
 BRILLOUIN|   229           0.00195       -0.26562       -0.35938        0.00000
 BRILLOUIN|   230           0.00195       -0.26562       -0.32812        0.00000
 BRILLOUIN|   231           0.00195       -0.26562       -0.29688        0.00000
 BRILLOUIN|   232           0.00195       -0.26562       -0.26562        0.00000
 BRILLOUIN|   233           0.00195       -0.26562       -0.23438        0.00000
 BRILLOUIN|   234           0.00195       -0.26562       -0.20312        0.00000
 BRILLOUIN|   235           0.00195       -0.26562       -0.17188        0.00000
 BRILLOUIN|   236           0.00195       -0.26562       -0.14062        0.00000
 BRILLOUIN|   237           0.00195       -0.26562       -0.10938        0.00000
 BRILLOUIN|   238           0.00195       -0.26562       -0.07812        0.00000
 BRILLOUIN|   239           0.00195       -0.26562       -0.04688        0.00000
 BRILLOUIN|   240           0.00195       -0.26562       -0.01562        0.00000
 BRILLOUIN|   241           0.00195       -0.26562        0.01562        0.00000
 BRILLOUIN|   242           0.00195       -0.26562        0.04688        0.00000
 BRILLOUIN|   243           0.00195       -0.26562        0.07812        0.00000
 BRILLOUIN|   244           0.00195       -0.26562        0.10938        0.00000
 BRILLOUIN|   245           0.00195       -0.26562        0.14062        0.00000
 BRILLOUIN|   246           0.00195       -0.26562        0.17188        0.00000
 BRILLOUIN|   247           0.00195       -0.26562        0.20312        0.00000
 BRILLOUIN|   248           0.00195       -0.26562        0.23438        0.00000
 BRILLOUIN|   249           0.00195       -0.26562        0.26562        0.00000
 BRILLOUIN|   250           0.00195       -0.26562        0.29688        0.00000
 BRILLOUIN|   251           0.00195       -0.26562        0.32812        0.00000
 BRILLOUIN|   252           0.00195       -0.26562        0.35938        0.00000
 BRILLOUIN|   253           0.00195       -0.26562        0.39062        0.00000
 BRILLOUIN|   254           0.00195       -0.26562        0.42188        0.00000
 BRILLOUIN|   255           0.00195       -0.26562        0.45312        0.00000
 BRILLOUIN|   256           0.00195       -0.26562        0.48438        0.00000
 BRILLOUIN|   257           0.00195       -0.23438       -0.48438        0.00000
 BRILLOUIN|   258           0.00195       -0.23438       -0.45312        0.00000
 BRILLOUIN|   259           0.00195       -0.23438       -0.42188        0.00000
 BRILLOUIN|   260           0.00195       -0.23438       -0.39062        0.00000
 BRILLOUIN|   261           0.00195       -0.23438       -0.35938        0.00000
 BRILLOUIN|   262           0.00195       -0.23438       -0.32812        0.00000
 BRILLOUIN|   263           0.00195       -0.23438       -0.29688        0.00000
 BRILLOUIN|   264           0.00195       -0.23438       -0.26562        0.00000
 BRILLOUIN|   265           0.00195       -0.23438       -0.23438        0.00000
 BRILLOUIN|   266           0.00195       -0.23438       -0.20312        0.00000
 BRILLOUIN|   267           0.00195       -0.23438       -0.17188        0.00000
 BRILLOUIN|   268           0.00195       -0.23438       -0.14062        0.00000
 BRILLOUIN|   269           0.00195       -0.23438       -0.10938        0.00000
 BRILLOUIN|   270           0.00195       -0.23438       -0.07812        0.00000
 BRILLOUIN|   271           0.00195       -0.23438       -0.04688        0.00000
 BRILLOUIN|   272           0.00195       -0.23438       -0.01562        0.00000
 BRILLOUIN|   273           0.00195       -0.23438        0.01562        0.00000
 BRILLOUIN|   274           0.00195       -0.23438        0.04688        0.00000
 BRILLOUIN|   275           0.00195       -0.23438        0.07812        0.00000
 BRILLOUIN|   276           0.00195       -0.23438        0.10938        0.00000
 BRILLOUIN|   277           0.00195       -0.23438        0.14062        0.00000
 BRILLOUIN|   278           0.00195       -0.23438        0.17188        0.00000
 BRILLOUIN|   279           0.00195       -0.23438        0.20312        0.00000
 BRILLOUIN|   280           0.00195       -0.23438        0.23438        0.00000
 BRILLOUIN|   281           0.00195       -0.23438        0.26562        0.00000
 BRILLOUIN|   282           0.00195       -0.23438        0.29688        0.00000
 BRILLOUIN|   283           0.00195       -0.23438        0.32812        0.00000
 BRILLOUIN|   284           0.00195       -0.23438        0.35938        0.00000
 BRILLOUIN|   285           0.00195       -0.23438        0.39062        0.00000
 BRILLOUIN|   286           0.00195       -0.23438        0.42188        0.00000
 BRILLOUIN|   287           0.00195       -0.23438        0.45312        0.00000
 BRILLOUIN|   288           0.00195       -0.23438        0.48438        0.00000
 BRILLOUIN|   289           0.00195       -0.20312       -0.48438        0.00000
 BRILLOUIN|   290           0.00195       -0.20312       -0.45312        0.00000
 BRILLOUIN|   291           0.00195       -0.20312       -0.42188        0.00000
 BRILLOUIN|   292           0.00195       -0.20312       -0.39062        0.00000
 BRILLOUIN|   293           0.00195       -0.20312       -0.35938        0.00000
 BRILLOUIN|   294           0.00195       -0.20312       -0.32812        0.00000
 BRILLOUIN|   295           0.00195       -0.20312       -0.29688        0.00000
 BRILLOUIN|   296           0.00195       -0.20312       -0.26562        0.00000
 BRILLOUIN|   297           0.00195       -0.20312       -0.23438        0.00000
 BRILLOUIN|   298           0.00195       -0.20312       -0.20312        0.00000
 BRILLOUIN|   299           0.00195       -0.20312       -0.17188        0.00000
 BRILLOUIN|   300           0.00195       -0.20312       -0.14062        0.00000
 BRILLOUIN|   301           0.00195       -0.20312       -0.10938        0.00000
 BRILLOUIN|   302           0.00195       -0.20312       -0.07812        0.00000
 BRILLOUIN|   303           0.00195       -0.20312       -0.04688        0.00000
 BRILLOUIN|   304           0.00195       -0.20312       -0.01562        0.00000
 BRILLOUIN|   305           0.00195       -0.20312        0.01562        0.00000
 BRILLOUIN|   306           0.00195       -0.20312        0.04688        0.00000
 BRILLOUIN|   307           0.00195       -0.20312        0.07812        0.00000
 BRILLOUIN|   308           0.00195       -0.20312        0.10938        0.00000
 BRILLOUIN|   309           0.00195       -0.20312        0.14062        0.00000
 BRILLOUIN|   310           0.00195       -0.20312        0.17188        0.00000
 BRILLOUIN|   311           0.00195       -0.20312        0.20312        0.00000
 BRILLOUIN|   312           0.00195       -0.20312        0.23438        0.00000
 BRILLOUIN|   313           0.00195       -0.20312        0.26562        0.00000
 BRILLOUIN|   314           0.00195       -0.20312        0.29688        0.00000
 BRILLOUIN|   315           0.00195       -0.20312        0.32812        0.00000
 BRILLOUIN|   316           0.00195       -0.20312        0.35938        0.00000
 BRILLOUIN|   317           0.00195       -0.20312        0.39062        0.00000
 BRILLOUIN|   318           0.00195       -0.20312        0.42188        0.00000
 BRILLOUIN|   319           0.00195       -0.20312        0.45312        0.00000
 BRILLOUIN|   320           0.00195       -0.20312        0.48438        0.00000
 BRILLOUIN|   321           0.00195       -0.17188       -0.48438        0.00000
 BRILLOUIN|   322           0.00195       -0.17188       -0.45312        0.00000
 BRILLOUIN|   323           0.00195       -0.17188       -0.42188        0.00000
 BRILLOUIN|   324           0.00195       -0.17188       -0.39062        0.00000
 BRILLOUIN|   325           0.00195       -0.17188       -0.35938        0.00000
 BRILLOUIN|   326           0.00195       -0.17188       -0.32812        0.00000
 BRILLOUIN|   327           0.00195       -0.17188       -0.29688        0.00000
 BRILLOUIN|   328           0.00195       -0.17188       -0.26562        0.00000
 BRILLOUIN|   329           0.00195       -0.17188       -0.23438        0.00000
 BRILLOUIN|   330           0.00195       -0.17188       -0.20312        0.00000
 BRILLOUIN|   331           0.00195       -0.17188       -0.17188        0.00000
 BRILLOUIN|   332           0.00195       -0.17188       -0.14062        0.00000
 BRILLOUIN|   333           0.00195       -0.17188       -0.10938        0.00000
 BRILLOUIN|   334           0.00195       -0.17188       -0.07812        0.00000
 BRILLOUIN|   335           0.00195       -0.17188       -0.04688        0.00000
 BRILLOUIN|   336           0.00195       -0.17188       -0.01562        0.00000
 BRILLOUIN|   337           0.00195       -0.17188        0.01562        0.00000
 BRILLOUIN|   338           0.00195       -0.17188        0.04688        0.00000
 BRILLOUIN|   339           0.00195       -0.17188        0.07812        0.00000
 BRILLOUIN|   340           0.00195       -0.17188        0.10938        0.00000
 BRILLOUIN|   341           0.00195       -0.17188        0.14062        0.00000
 BRILLOUIN|   342           0.00195       -0.17188        0.17188        0.00000
 BRILLOUIN|   343           0.00195       -0.17188        0.20312        0.00000
 BRILLOUIN|   344           0.00195       -0.17188        0.23438        0.00000
 BRILLOUIN|   345           0.00195       -0.17188        0.26562        0.00000
 BRILLOUIN|   346           0.00195       -0.17188        0.29688        0.00000
 BRILLOUIN|   347           0.00195       -0.17188        0.32812        0.00000
 BRILLOUIN|   348           0.00195       -0.17188        0.35938        0.00000
 BRILLOUIN|   349           0.00195       -0.17188        0.39062        0.00000
 BRILLOUIN|   350           0.00195       -0.17188        0.42188        0.00000
 BRILLOUIN|   351           0.00195       -0.17188        0.45312        0.00000
 BRILLOUIN|   352           0.00195       -0.17188        0.48438        0.00000
 BRILLOUIN|   353           0.00195       -0.14062       -0.48438        0.00000
 BRILLOUIN|   354           0.00195       -0.14062       -0.45312        0.00000
 BRILLOUIN|   355           0.00195       -0.14062       -0.42188        0.00000
 BRILLOUIN|   356           0.00195       -0.14062       -0.39062        0.00000
 BRILLOUIN|   357           0.00195       -0.14062       -0.35938        0.00000
 BRILLOUIN|   358           0.00195       -0.14062       -0.32812        0.00000
 BRILLOUIN|   359           0.00195       -0.14062       -0.29688        0.00000
 BRILLOUIN|   360           0.00195       -0.14062       -0.26562        0.00000
 BRILLOUIN|   361           0.00195       -0.14062       -0.23438        0.00000
 BRILLOUIN|   362           0.00195       -0.14062       -0.20312        0.00000
 BRILLOUIN|   363           0.00195       -0.14062       -0.17188        0.00000
 BRILLOUIN|   364           0.00195       -0.14062       -0.14062        0.00000
 BRILLOUIN|   365           0.00195       -0.14062       -0.10938        0.00000
 BRILLOUIN|   366           0.00195       -0.14062       -0.07812        0.00000
 BRILLOUIN|   367           0.00195       -0.14062       -0.04688        0.00000
 BRILLOUIN|   368           0.00195       -0.14062       -0.01562        0.00000
 BRILLOUIN|   369           0.00195       -0.14062        0.01562        0.00000
 BRILLOUIN|   370           0.00195       -0.14062        0.04688        0.00000
 BRILLOUIN|   371           0.00195       -0.14062        0.07812        0.00000
 BRILLOUIN|   372           0.00195       -0.14062        0.10938        0.00000
 BRILLOUIN|   373           0.00195       -0.14062        0.14062        0.00000
 BRILLOUIN|   374           0.00195       -0.14062        0.17188        0.00000
 BRILLOUIN|   375           0.00195       -0.14062        0.20312        0.00000
 BRILLOUIN|   376           0.00195       -0.14062        0.23438        0.00000
 BRILLOUIN|   377           0.00195       -0.14062        0.26562        0.00000
 BRILLOUIN|   378           0.00195       -0.14062        0.29688        0.00000
 BRILLOUIN|   379           0.00195       -0.14062        0.32812        0.00000
 BRILLOUIN|   380           0.00195       -0.14062        0.35938        0.00000
 BRILLOUIN|   381           0.00195       -0.14062        0.39062        0.00000
 BRILLOUIN|   382           0.00195       -0.14062        0.42188        0.00000
 BRILLOUIN|   383           0.00195       -0.14062        0.45312        0.00000
 BRILLOUIN|   384           0.00195       -0.14062        0.48438        0.00000
 BRILLOUIN|   385           0.00195       -0.10938       -0.48438        0.00000
 BRILLOUIN|   386           0.00195       -0.10938       -0.45312        0.00000
 BRILLOUIN|   387           0.00195       -0.10938       -0.42188        0.00000
 BRILLOUIN|   388           0.00195       -0.10938       -0.39062        0.00000
 BRILLOUIN|   389           0.00195       -0.10938       -0.35938        0.00000
 BRILLOUIN|   390           0.00195       -0.10938       -0.32812        0.00000
 BRILLOUIN|   391           0.00195       -0.10938       -0.29688        0.00000
 BRILLOUIN|   392           0.00195       -0.10938       -0.26562        0.00000
 BRILLOUIN|   393           0.00195       -0.10938       -0.23438        0.00000
 BRILLOUIN|   394           0.00195       -0.10938       -0.20312        0.00000
 BRILLOUIN|   395           0.00195       -0.10938       -0.17188        0.00000
 BRILLOUIN|   396           0.00195       -0.10938       -0.14062        0.00000
 BRILLOUIN|   397           0.00195       -0.10938       -0.10938        0.00000
 BRILLOUIN|   398           0.00195       -0.10938       -0.07812        0.00000
 BRILLOUIN|   399           0.00195       -0.10938       -0.04688        0.00000
 BRILLOUIN|   400           0.00195       -0.10938       -0.01562        0.00000
 BRILLOUIN|   401           0.00195       -0.10938        0.01562        0.00000
 BRILLOUIN|   402           0.00195       -0.10938        0.04688        0.00000
 BRILLOUIN|   403           0.00195       -0.10938        0.07812        0.00000
 BRILLOUIN|   404           0.00195       -0.10938        0.10938        0.00000
 BRILLOUIN|   405           0.00195       -0.10938        0.14062        0.00000
 BRILLOUIN|   406           0.00195       -0.10938        0.17188        0.00000
 BRILLOUIN|   407           0.00195       -0.10938        0.20312        0.00000
 BRILLOUIN|   408           0.00195       -0.10938        0.23438        0.00000
 BRILLOUIN|   409           0.00195       -0.10938        0.26562        0.00000
 BRILLOUIN|   410           0.00195       -0.10938        0.29688        0.00000
 BRILLOUIN|   411           0.00195       -0.10938        0.32812        0.00000
 BRILLOUIN|   412           0.00195       -0.10938        0.35938        0.00000
 BRILLOUIN|   413           0.00195       -0.10938        0.39062        0.00000
 BRILLOUIN|   414           0.00195       -0.10938        0.42188        0.00000
 BRILLOUIN|   415           0.00195       -0.10938        0.45312        0.00000
 BRILLOUIN|   416           0.00195       -0.10938        0.48438        0.00000
 BRILLOUIN|   417           0.00195       -0.07812       -0.48438        0.00000
 BRILLOUIN|   418           0.00195       -0.07812       -0.45312        0.00000
 BRILLOUIN|   419           0.00195       -0.07812       -0.42188        0.00000
 BRILLOUIN|   420           0.00195       -0.07812       -0.39062        0.00000
 BRILLOUIN|   421           0.00195       -0.07812       -0.35938        0.00000
 BRILLOUIN|   422           0.00195       -0.07812       -0.32812        0.00000
 BRILLOUIN|   423           0.00195       -0.07812       -0.29688        0.00000
 BRILLOUIN|   424           0.00195       -0.07812       -0.26562        0.00000
 BRILLOUIN|   425           0.00195       -0.07812       -0.23438        0.00000
 BRILLOUIN|   426           0.00195       -0.07812       -0.20312        0.00000
 BRILLOUIN|   427           0.00195       -0.07812       -0.17188        0.00000
 BRILLOUIN|   428           0.00195       -0.07812       -0.14062        0.00000
 BRILLOUIN|   429           0.00195       -0.07812       -0.10938        0.00000
 BRILLOUIN|   430           0.00195       -0.07812       -0.07812        0.00000
 BRILLOUIN|   431           0.00195       -0.07812       -0.04688        0.00000
 BRILLOUIN|   432           0.00195       -0.07812       -0.01562        0.00000
 BRILLOUIN|   433           0.00195       -0.07812        0.01562        0.00000
 BRILLOUIN|   434           0.00195       -0.07812        0.04688        0.00000
 BRILLOUIN|   435           0.00195       -0.07812        0.07812        0.00000
 BRILLOUIN|   436           0.00195       -0.07812        0.10938        0.00000
 BRILLOUIN|   437           0.00195       -0.07812        0.14062        0.00000
 BRILLOUIN|   438           0.00195       -0.07812        0.17188        0.00000
 BRILLOUIN|   439           0.00195       -0.07812        0.20312        0.00000
 BRILLOUIN|   440           0.00195       -0.07812        0.23438        0.00000
 BRILLOUIN|   441           0.00195       -0.07812        0.26562        0.00000
 BRILLOUIN|   442           0.00195       -0.07812        0.29688        0.00000
 BRILLOUIN|   443           0.00195       -0.07812        0.32812        0.00000
 BRILLOUIN|   444           0.00195       -0.07812        0.35938        0.00000
 BRILLOUIN|   445           0.00195       -0.07812        0.39062        0.00000
 BRILLOUIN|   446           0.00195       -0.07812        0.42188        0.00000
 BRILLOUIN|   447           0.00195       -0.07812        0.45312        0.00000
 BRILLOUIN|   448           0.00195       -0.07812        0.48438        0.00000
 BRILLOUIN|   449           0.00195       -0.04688       -0.48438        0.00000
 BRILLOUIN|   450           0.00195       -0.04688       -0.45312        0.00000
 BRILLOUIN|   451           0.00195       -0.04688       -0.42188        0.00000
 BRILLOUIN|   452           0.00195       -0.04688       -0.39062        0.00000
 BRILLOUIN|   453           0.00195       -0.04688       -0.35938        0.00000
 BRILLOUIN|   454           0.00195       -0.04688       -0.32812        0.00000
 BRILLOUIN|   455           0.00195       -0.04688       -0.29688        0.00000
 BRILLOUIN|   456           0.00195       -0.04688       -0.26562        0.00000
 BRILLOUIN|   457           0.00195       -0.04688       -0.23438        0.00000
 BRILLOUIN|   458           0.00195       -0.04688       -0.20312        0.00000
 BRILLOUIN|   459           0.00195       -0.04688       -0.17188        0.00000
 BRILLOUIN|   460           0.00195       -0.04688       -0.14062        0.00000
 BRILLOUIN|   461           0.00195       -0.04688       -0.10938        0.00000
 BRILLOUIN|   462           0.00195       -0.04688       -0.07812        0.00000
 BRILLOUIN|   463           0.00195       -0.04688       -0.04688        0.00000
 BRILLOUIN|   464           0.00195       -0.04688       -0.01562        0.00000
 BRILLOUIN|   465           0.00195       -0.04688        0.01562        0.00000
 BRILLOUIN|   466           0.00195       -0.04688        0.04688        0.00000
 BRILLOUIN|   467           0.00195       -0.04688        0.07812        0.00000
 BRILLOUIN|   468           0.00195       -0.04688        0.10938        0.00000
 BRILLOUIN|   469           0.00195       -0.04688        0.14062        0.00000
 BRILLOUIN|   470           0.00195       -0.04688        0.17188        0.00000
 BRILLOUIN|   471           0.00195       -0.04688        0.20312        0.00000
 BRILLOUIN|   472           0.00195       -0.04688        0.23438        0.00000
 BRILLOUIN|   473           0.00195       -0.04688        0.26562        0.00000
 BRILLOUIN|   474           0.00195       -0.04688        0.29688        0.00000
 BRILLOUIN|   475           0.00195       -0.04688        0.32812        0.00000
 BRILLOUIN|   476           0.00195       -0.04688        0.35938        0.00000
 BRILLOUIN|   477           0.00195       -0.04688        0.39062        0.00000
 BRILLOUIN|   478           0.00195       -0.04688        0.42188        0.00000
 BRILLOUIN|   479           0.00195       -0.04688        0.45312        0.00000
 BRILLOUIN|   480           0.00195       -0.04688        0.48438        0.00000
 BRILLOUIN|   481           0.00195       -0.01562       -0.48438        0.00000
 BRILLOUIN|   482           0.00195       -0.01562       -0.45312        0.00000
 BRILLOUIN|   483           0.00195       -0.01562       -0.42188        0.00000
 BRILLOUIN|   484           0.00195       -0.01562       -0.39062        0.00000
 BRILLOUIN|   485           0.00195       -0.01562       -0.35938        0.00000
 BRILLOUIN|   486           0.00195       -0.01562       -0.32812        0.00000
 BRILLOUIN|   487           0.00195       -0.01562       -0.29688        0.00000
 BRILLOUIN|   488           0.00195       -0.01562       -0.26562        0.00000
 BRILLOUIN|   489           0.00195       -0.01562       -0.23438        0.00000
 BRILLOUIN|   490           0.00195       -0.01562       -0.20312        0.00000
 BRILLOUIN|   491           0.00195       -0.01562       -0.17188        0.00000
 BRILLOUIN|   492           0.00195       -0.01562       -0.14062        0.00000
 BRILLOUIN|   493           0.00195       -0.01562       -0.10938        0.00000
 BRILLOUIN|   494           0.00195       -0.01562       -0.07812        0.00000
 BRILLOUIN|   495           0.00195       -0.01562       -0.04688        0.00000
 BRILLOUIN|   496           0.00195       -0.01562       -0.01562        0.00000
 BRILLOUIN|   497           0.00195       -0.01562        0.01562        0.00000
 BRILLOUIN|   498           0.00195       -0.01562        0.04688        0.00000
 BRILLOUIN|   499           0.00195       -0.01562        0.07812        0.00000
 BRILLOUIN|   500           0.00195       -0.01562        0.10938        0.00000
 BRILLOUIN|   501           0.00195       -0.01562        0.14062        0.00000
 BRILLOUIN|   502           0.00195       -0.01562        0.17188        0.00000
 BRILLOUIN|   503           0.00195       -0.01562        0.20312        0.00000
 BRILLOUIN|   504           0.00195       -0.01562        0.23438        0.00000
 BRILLOUIN|   505           0.00195       -0.01562        0.26562        0.00000
 BRILLOUIN|   506           0.00195       -0.01562        0.29688        0.00000
 BRILLOUIN|   507           0.00195       -0.01562        0.32812        0.00000
 BRILLOUIN|   508           0.00195       -0.01562        0.35938        0.00000
 BRILLOUIN|   509           0.00195       -0.01562        0.39062        0.00000
 BRILLOUIN|   510           0.00195       -0.01562        0.42188        0.00000
 BRILLOUIN|   511           0.00195       -0.01562        0.45312        0.00000
 BRILLOUIN|   512           0.00195       -0.01562        0.48438        0.00000
 *******************************************************************************

 *******************************************************************************
 *******************************************************************************
 **                                                                           **
 **     #####                         ##              ##                      **
 **    ##   ##            ##          ##              ##                      **
 **   ##     ##                       ##            ######                    **
 **   ##     ##  ##   ##  ##   #####  ##  ##   ####   ##    #####    #####    **
 **   ##     ##  ##   ##  ##  ##      ## ##   ##      ##   ##   ##  ##   ##   **
 **   ##  ## ##  ##   ##  ##  ##      ####     ###    ##   ######   ######    **
 **    ##  ###   ##   ##  ##  ##      ## ##      ##   ##   ##       ##        **
 **     #######   #####   ##   #####  ##  ##  ####    ##    #####   ##        **
 **           ##                                                    ##        **
 **                                                                           **
 **                                                ... make the atoms dance   **
 **                                                                           **
 **            Copyright (C) by CP2K developers group (2000-2024)             **
 **                      J. Chem. Phys. 152, 194103 (2020)                    **
 **                                                                           **
 *******************************************************************************

 DFT| Spin restricted Kohn-Sham (RKS) calculation                            RKS
 DFT| Multiplicity                                                             1
 DFT| Number of spin states                                                    1
 DFT| Charge                                                                   0
 DFT| Self-interaction correction (SIC)                                       NO
 DFT| Cutoffs: density                                              1.000000E-10
 DFT|          gradient                                             1.000000E-10
 DFT|          tau                                                  1.000000E-10
 DFT|          cutoff_smoothing_range                               0.000000E+00
 DFT| XC density smoothing                                                  NONE
 DFT| XC derivatives                                                          PW

 FUNCTIONAL| PBE:
 FUNCTIONAL| J.P.Perdew, K.Burke, M.Ernzerhof, Phys. Rev. Letter, vol. 77, n 18,
 FUNCTIONAL|  pp. 3865-3868, (1996) {spin unpolarized}                          


 QS| Method:                                                                GAPW
 QS| Density plane wave grid type                        NON-SPHERICAL FULLSPACE
 QS| Number of grid levels:                                                    4
 QS| Density cutoff [a.u.]:                                                250.0
 QS| Multi grid cutoff [a.u.]: 1) grid level                               250.0
 QS|                           2) grid level                                83.3
 QS|                           3) grid level                                27.8
 QS|                           4) grid level                                 9.3
 QS| Grid level progression factor:                                          3.0
 QS| Relative density cutoff [a.u.]:                                        50.0
 QS| Interaction thresholds: eps_pgf_orb:                                1.0E-12
 QS|                         eps_filter_matrix:                          0.0E+00
 QS|                         eps_core_charge:                            1.0E-14
 QS|                         eps_rho_gspace:                             1.0E-12
 QS|                         eps_rho_rspace:                             1.0E-12
 QS|                         eps_gvg_rspace:                             1.0E-06
 QS|                         eps_ppl:                                    1.0E-02
 QS|                         eps_ppnl:                                   1.0E-08
 QS| GAPW|      One center basis from orbital basis primitives
 QS| GAPW|                   eps_fit:                                    1.0E-04
 QS| GAPW|                   eps_iso:                                    1.0E-12
 QS| GAPW|                   eps_svd:                                    1.0E-08
 QS| GAPW|                   eps_cpc:                                    1.0E-12
 QS| GAPW|   atom-r-grid: quadrature:                                     GC_LOG
 QS| GAPW|      atom-s-grid:  max l :                                          8
 QS| GAPW|      max_l_rho0 :                                                   2
 QS| GAPW|      At least one kind is NOT PAW, i.e. it has only soft AO 
 QS| GAPW|      The NOT PAW atoms are treated fully GPW


 ATOMIC KIND INFORMATION

  1. Atomic kind: W                                     Number of atoms:       1

     Orbital Basis Set                                       aug-TZVP-MOLOPT-GTH

       Number of orbital shell sets:                                           1
       Number of orbital shells:                                              17
       Number of primitive Cartesian functions:                                7
       Number of Cartesian basis functions:                                   86
       Number of spherical basis functions:                                   67
       Norm type:                                                              2

       Normalised Cartesian orbitals:

                        Set   Shell   Orbital            Exponent    Coefficient

                          1       1    2s                0.035000       0.000000
                                                         0.057796      -0.016637
                                                         0.172572      -0.034869
                                                         0.447462      -0.093621
                                                         1.054481      -0.613576
                                                         2.970404       0.395569
                                                         3.202637       0.390455

                          1       2    3s                0.035000       0.000000
                                                         0.057796       0.068807
                                                         0.172572       0.077989
                                                         0.447462      -0.095130
                                                         1.054481      -0.142499
                                                         2.970404       0.668497
                                                         3.202637      -0.614092

                          1       3    4s                0.035000       0.000000
                                                         0.057796       0.131676
                                                         0.172572      -0.385155
                                                         0.447462       0.074208
                                                         1.054481       0.053651
                                                         2.970404      -0.653615
                                                         3.202637       1.092711

                          1       4    5s                0.035000       0.000000
                                                         0.057796       0.032600
                                                         0.172572       0.144478
                                                         0.447462      -0.015921
                                                         1.054481      -0.160143
                                                         2.970404      -1.282740
                                                         3.202637       1.654250

                          1       5    6s                0.035000      -0.063260
                                                         0.057796       0.025335
                                                         0.172572       0.060989
                                                         0.447462       0.165009
                                                         1.054481       0.224290
                                                         2.970404       0.000000
                                                         3.202637       0.000000

                          1       6    3px               0.035000       0.000000
                                                         0.057796      -0.000597
                                                         0.172572      -0.008465
                                                         0.447462      -0.208773
                                                         1.054481      -0.974837
                                                         2.970404      -4.932679
                                                         3.202637       6.040419
                          1       6    3py               0.035000       0.000000
                                                         0.057796      -0.000597
                                                         0.172572      -0.008465
                                                         0.447462      -0.208773
                                                         1.054481      -0.974837
                                                         2.970404      -4.932679
                                                         3.202637       6.040419
                          1       6    3pz               0.035000       0.000000
                                                         0.057796      -0.000597
                                                         0.172572      -0.008465
                                                         0.447462      -0.208773
                                                         1.054481      -0.974837
                                                         2.970404      -4.932679
                                                         3.202637       6.040419

                          1       7    4px               0.035000       0.000000
                                                         0.057796       0.014461
                                                         0.172572       0.123686
                                                         0.447462       0.002190
                                                         1.054481      -0.482085
                                                         2.970404       0.501117
                                                         3.202637      -0.456557
                          1       7    4py               0.035000       0.000000
                                                         0.057796       0.014461
                                                         0.172572       0.123686
                                                         0.447462       0.002190
                                                         1.054481      -0.482085
                                                         2.970404       0.501117
                                                         3.202637      -0.456557
                          1       7    4pz               0.035000       0.000000
                                                         0.057796       0.014461
                                                         0.172572       0.123686
                                                         0.447462       0.002190
                                                         1.054481      -0.482085
                                                         2.970404       0.501117
                                                         3.202637      -0.456557

                          1       8    5px               0.035000       0.000000
                                                         0.057796       0.050806
                                                         0.172572      -0.068662
                                                         0.447462      -0.160487
                                                         1.054481       0.501233
                                                         2.970404      -0.173550
                                                         3.202637       0.341147
                          1       8    5py               0.035000       0.000000
                                                         0.057796       0.050806
                                                         0.172572      -0.068662
                                                         0.447462      -0.160487
                                                         1.054481       0.501233
                                                         2.970404      -0.173550
                                                         3.202637       0.341147
                          1       8    5pz               0.035000       0.000000
                                                         0.057796       0.050806
                                                         0.172572      -0.068662
                                                         0.447462      -0.160487
                                                         1.054481       0.501233
                                                         2.970404      -0.173550
                                                         3.202637       0.341147

                          1       9    6px               0.035000       0.002610
                                                         0.057796       0.035513
                                                         0.172572      -0.008284
                                                         0.447462       0.058139
                                                         1.054481       0.041516
                                                         2.970404       0.000000
                                                         3.202637       0.000000
                          1       9    6py               0.035000       0.002610
                                                         0.057796       0.035513
                                                         0.172572      -0.008284
                                                         0.447462       0.058139
                                                         1.054481       0.041516
                                                         2.970404       0.000000
                                                         3.202637       0.000000
                          1       9    6pz               0.035000       0.002610
                                                         0.057796       0.035513
                                                         0.172572      -0.008284
                                                         0.447462       0.058139
                                                         1.054481       0.041516
                                                         2.970404       0.000000
                                                         3.202637       0.000000

                          1      10    4dx2              0.035000       0.000000
                                                         0.057796       0.001694
                                                         0.172572       0.030785
                                                         0.447462       0.161140
                                                         1.054481       0.508845
                                                         2.970404       1.305061
                                                         3.202637      -1.177084
                          1      10    4dxy              0.035000       0.000000
                                                         0.057796       0.002935
                                                         0.172572       0.053320
                                                         0.447462       0.279102
                                                         1.054481       0.881345
                                                         2.970404       2.260431
                                                         3.202637      -2.038769
                          1      10    4dxz              0.035000       0.000000
                                                         0.057796       0.002935
                                                         0.172572       0.053320
                                                         0.447462       0.279102
                                                         1.054481       0.881345
                                                         2.970404       2.260431
                                                         3.202637      -2.038769
                          1      10    4dy2              0.035000       0.000000
                                                         0.057796       0.001694
                                                         0.172572       0.030785
                                                         0.447462       0.161140
                                                         1.054481       0.508845
                                                         2.970404       1.305061
                                                         3.202637      -1.177084
                          1      10    4dyz              0.035000       0.000000
                                                         0.057796       0.002935
                                                         0.172572       0.053320
                                                         0.447462       0.279102
                                                         1.054481       0.881345
                                                         2.970404       2.260431
                                                         3.202637      -2.038769
                          1      10    4dz2              0.035000       0.000000
                                                         0.057796       0.001694
                                                         0.172572       0.030785
                                                         0.447462       0.161140
                                                         1.054481       0.508845
                                                         2.970404       1.305061
                                                         3.202637      -1.177084

                          1      11    5dx2              0.035000       0.000000
                                                         0.057796       0.007534
                                                         0.172572       0.033139
                                                         0.447462      -0.172753
                                                         1.054481      -0.529259
                                                         2.970404      -1.375349
                                                         3.202637       1.244996
                          1      11    5dxy              0.035000       0.000000
                                                         0.057796       0.013049
                                                         0.172572       0.057398
                                                         0.447462      -0.299217
                                                         1.054481      -0.916703
                                                         2.970404      -2.382174
                                                         3.202637       2.156396
                          1      11    5dxz              0.035000       0.000000
                                                         0.057796       0.013049
                                                         0.172572       0.057398
                                                         0.447462      -0.299217
                                                         1.054481      -0.916703
                                                         2.970404      -2.382174
                                                         3.202637       2.156396
                          1      11    5dy2              0.035000       0.000000
                                                         0.057796       0.007534
                                                         0.172572       0.033139
                                                         0.447462      -0.172753
                                                         1.054481      -0.529259
                                                         2.970404      -1.375349
                                                         3.202637       1.244996
                          1      11    5dyz              0.035000       0.000000
                                                         0.057796       0.013049
                                                         0.172572       0.057398
                                                         0.447462      -0.299217
                                                         1.054481      -0.916703
                                                         2.970404      -2.382174
                                                         3.202637       2.156396
                          1      11    5dz2              0.035000       0.000000
                                                         0.057796       0.007534
                                                         0.172572       0.033139
                                                         0.447462      -0.172753
                                                         1.054481      -0.529259
                                                         2.970404      -1.375349
                                                         3.202637       1.244996

                          1      12    6dx2              0.035000       0.000000
                                                         0.057796       0.013897
                                                         0.172572      -0.090632
                                                         0.447462       0.187765
                                                         1.054481       0.514591
                                                         2.970404       1.580031
                                                         3.202637      -1.576224
                          1      12    6dxy              0.035000       0.000000
                                                         0.057796       0.024070
                                                         0.172572      -0.156980
                                                         0.447462       0.325219
                                                         1.054481       0.891298
                                                         2.970404       2.736694
                                                         3.202637      -2.730099
                          1      12    6dxz              0.035000       0.000000
                                                         0.057796       0.024070
                                                         0.172572      -0.156980
                                                         0.447462       0.325219
                                                         1.054481       0.891298
                                                         2.970404       2.736694
                                                         3.202637      -2.730099
                          1      12    6dy2              0.035000       0.000000
                                                         0.057796       0.013897
                                                         0.172572      -0.090632
                                                         0.447462       0.187765
                                                         1.054481       0.514591
                                                         2.970404       1.580031
                                                         3.202637      -1.576224
                          1      12    6dyz              0.035000       0.000000
                                                         0.057796       0.024070
                                                         0.172572      -0.156980
                                                         0.447462       0.325219
                                                         1.054481       0.891298
                                                         2.970404       2.736694
                                                         3.202637      -2.730099
                          1      12    6dz2              0.035000       0.000000
                                                         0.057796       0.013897
                                                         0.172572      -0.090632
                                                         0.447462       0.187765
                                                         1.054481       0.514591
                                                         2.970404       1.580031
                                                         3.202637      -1.576224

                          1      13    7dx2              0.035000      -0.000079
                                                         0.057796      -0.000326
                                                         0.172572      -0.001242
                                                         0.447462       0.343125
                                                         1.054481       0.380125
                                                         2.970404       0.000000
                                                         3.202637       0.000000
                          1      13    7dxy              0.035000      -0.000137
                                                         0.057796      -0.000565
                                                         0.172572      -0.002152
                                                         0.447462       0.594310
                                                         1.054481       0.658396
                                                         2.970404       0.000000
                                                         3.202637       0.000000
                          1      13    7dxz              0.035000      -0.000137
                                                         0.057796      -0.000565
                                                         0.172572      -0.002152
                                                         0.447462       0.594310
                                                         1.054481       0.658396
                                                         2.970404       0.000000
[...]
 RS_GRID|   Bounds   2            -22      22                Points:          45
 RS_GRID|   Bounds   3           -108     107                Points:         216
 RS_GRID| Real space fully replicated
 RS_GRID| Group size                                                           1

 RS_GRID| Information for grid number                                          2
 RS_GRID|   Bounds   1            -12      12                Points:          25
 RS_GRID|   Bounds   2            -12      12                Points:          25
 RS_GRID|   Bounds   3            -60      59                Points:         120
 RS_GRID| Real space fully replicated
 RS_GRID| Group size                                                           1

 RS_GRID| Information for grid number                                          3
 RS_GRID|   Bounds   1             -7       7                Points:          15
 RS_GRID|   Bounds   2             -7       7                Points:          15
 RS_GRID|   Bounds   3            -36      35                Points:          72
 RS_GRID| Real space fully replicated
 RS_GRID| Group size                                                           1

 RS_GRID| Information for grid number                                          4
 RS_GRID|   Bounds   1             -4       4                Points:           9
 RS_GRID|   Bounds   2             -4       4                Points:           9
 RS_GRID|   Bounds   3            -20      19                Points:          40
 RS_GRID| Real space fully replicated
 RS_GRID| Group size                                                           1

 Number of electrons:                                                         26
 Number of occupied orbitals:                                                 13
 Number of molecular orbitals:                                               175

 Number of orbital functions:                                                175
 Number of independent orbital functions:                                    175

 Extrapolation method: initial_guess

 Atomic guess: The first density matrix is obtained in terms of atomic orbitals
               and electronic configurations assigned to each atomic kind

 Guess for atomic kind: W

 Electronic structure
    Total number of core electrons                                         60.00
    Total number of valence electrons                                      14.00
    Total number of electrons                                              74.00
    Multiplicity                                                   not specified
    S   [  2.00  2.00  2.00  2.00] 2.00  2.00
    P   [  6.00  6.00  6.00] 6.00
    D   [ 10.00 10.00] 4.00
    F   [ 14.00]


 *******************************************************************************
                  Iteration          Convergence                     Energy [au]
 *******************************************************************************
                          1        0.955045                     -67.246601558927
                          2         1.10088                     -67.074522988002
                          3        0.109352                     -67.539464501258
                          4        0.195496E-01                 -67.545806262871
                          5        0.951961E-03                 -67.545996900050
                          6        0.497794E-05                 -67.545997350067
                          7        0.542766E-07                 -67.545997350079

 Energy components [Hartree]           Total Energy ::          -67.545997350079
                                        Band Energy ::          -15.945606220323
                                     Kinetic Energy ::           21.044102342482
                                   Potential Energy ::          -88.590099692561
                                      Virial (-V/T) ::            4.209735262203
                                        Core Energy ::         -114.157805393791
                                          XC Energy ::           -7.241522427762
                                     Coulomb Energy ::           53.853330471473
                       Total Pseudopotential Energy ::         -135.339935482824
                       Local Pseudopotential Energy ::         -126.132598858251
                    Nonlocal Pseudopotential Energy ::           -9.207336624574
                                        Confinement ::            1.380277465520

 Orbital energies  State     L     Occupation   Energy[a.u.]          Energy[eV]

                       1     0          2.000      -2.857673          -77.761229
                       2     0          2.000      -0.175156           -4.766244

                       1     1          6.000      -1.558839          -42.418156

                       1     2          4.000      -0.131729           -3.584532


 Total Electron Density at R=0:                                         0.005847

 Guess for atomic kind: S

 Electronic structure
    Total number of core electrons                                         10.00
    Total number of valence electrons                                       6.00
    Total number of electrons                                              16.00
    Multiplicity                                                   not specified
    S   [  2.00  2.00] 2.00
    P   [  6.00] 4.00


 *******************************************************************************
                  Iteration          Convergence                     Energy [au]
 *******************************************************************************
                          1        0.335231E-01                  -9.954382522677
                          2        0.218941E-01                  -9.954681503369
                          3        0.133108E-03                  -9.954869043321
                          4        0.148595E-04                  -9.954869058630
                          5        0.204731E-06                  -9.954869058723

 Energy components [Hartree]           Total Energy ::           -9.954869058723
                                        Band Energy ::           -2.181031134256
                                     Kinetic Energy ::            3.753974287777
                                   Potential Energy ::          -13.708843346500
                                      Virial (-V/T) ::            3.651821322041
                                        Core Energy ::          -16.310190131362
                                          XC Energy ::           -2.044558565923
                                     Coulomb Energy ::            8.399879638563
                       Total Pseudopotential Energy ::          -20.122736963634
                       Local Pseudopotential Energy ::          -22.197511830606
                    Nonlocal Pseudopotential Energy ::            2.074774866972
                                        Confinement ::            0.585725444943

 Orbital energies  State     L     Occupation   Energy[a.u.]          Energy[eV]

                       1     0          2.000      -0.614348          -16.717267

                       1     1          4.000      -0.238084           -6.478585


 Total Electron Density at R=0:                                         0.000023
 Re-scaling the density matrix to get the right number of electrons
                  # Electrons              Trace(P)               Scaling factor
                           26                26.000                        1.000


 SCF WAVEFUNCTION OPTIMIZATION

  Step     Update method      Time    Convergence         Total energy    Change
  ------------------------------------------------------------------------------
     1 NoMix/Diag. 0.10E+00   20.5     3.16656061       -89.2699624150 -8.93E+01
     2 Broy./Diag. 0.10E+00   20.9     0.02147619       -89.2597290068  1.02E-02
     3 Broy./Diag. 0.10E+00   20.7     0.14972676       -89.0343639805  2.25E-01
     4 Broy./Diag. 0.10E+00   20.7     0.01168985       -88.6854654792  3.49E-01
     5 Broy./Diag. 0.10E+00   20.7     0.03416813       -88.6839285926  1.54E-03
     6 Broy./Diag. 0.10E+00   20.7     0.00581362       -88.7220196327 -3.81E-02
     7 Broy./Diag. 0.10E+00   20.9     0.00884965       -88.7415241039 -1.95E-02
     8 Broy./Diag. 0.10E+00   20.7     0.00447076       -88.7516125039 -1.01E-02
     9 Broy./Diag. 0.10E+00   20.9     0.00132060       -88.7646065449 -1.30E-02
    10 Broy./Diag. 0.10E+00   21.2     0.00329866       -88.7734944405 -8.89E-03
    11 Broy./Diag. 0.10E+00   20.9     0.00026628       -88.7809135758 -7.42E-03
    12 Broy./Diag. 0.10E+00   20.8     0.00271696       -88.7802947173  6.19E-04
    13 Broy./Diag. 0.10E+00   20.9     0.00007631       -88.7812271836 -9.32E-04
    14 Broy./Diag. 0.10E+00   20.8     0.00067568       -88.7796640121  1.56E-03
    15 Broy./Diag. 0.10E+00   20.8     0.00009892       -88.7800556492 -3.92E-04
    16 Broy./Diag. 0.10E+00   20.7     0.00049560       -88.7803277690 -2.72E-04
    17 Broy./Diag. 0.10E+00   20.8     0.00037461       -88.7809946682 -6.67E-04
    18 Broy./Diag. 0.10E+00   20.9     0.00051729       -88.7813198402 -3.25E-04
    19 Broy./Diag. 0.10E+00   20.9     0.00017751       -88.7813464956 -2.67E-05
    20 Broy./Diag. 0.10E+00   20.7     0.00028854       -88.7813526166 -6.12E-06
    21 Broy./Diag. 0.10E+00   20.7     0.00050823       -88.7813828937 -3.03E-05
    22 Broy./Diag. 0.10E+00   20.8     0.00018504       -88.7814352967 -5.24E-05
    23 Broy./Diag. 0.10E+00   20.7     0.00019775       -88.7814718690 -3.66E-05
    24 Broy./Diag. 0.10E+00   20.8     0.00009190       -88.7814882855 -1.64E-05
    25 Broy./Diag. 0.10E+00   20.8     0.00002151       -88.7814778583  1.04E-05
    26 Broy./Diag. 0.10E+00   20.7     0.00008496       -88.7813715196  1.06E-04
    27 Broy./Diag. 0.10E+00   20.7     0.00000993       -88.7812841247  8.74E-05
    28 Broy./Diag. 0.10E+00   20.8     0.00004044       -88.7812682583  1.59E-05
    29 Broy./Diag. 0.10E+00   20.8     0.00000234       -88.7812838159 -1.56E-05
    30 Broy./Diag. 0.10E+00   20.9     0.00001916       -88.7812958925 -1.21E-05
    31 Broy./Diag. 0.10E+00   20.9     0.00000314       -88.7813056562 -9.76E-06
    32 Broy./Diag. 0.10E+00   20.9     0.00000922       -88.7813121460 -6.49E-06
    33 Broy./Diag. 0.10E+00   20.8     0.00000196       -88.7813154026 -3.26E-06
    34 Broy./Diag. 0.10E+00   20.8     0.00000698       -88.7813171301 -1.73E-06
    35 Broy./Diag. 0.10E+00   20.7     0.00002021       -88.7813226034 -5.47E-06
    36 Broy./Diag. 0.10E+00   20.8     0.00001458       -88.7813264440 -3.84E-06
    37 Broy./Diag. 0.10E+00   20.8     0.00000436       -88.7813253334  1.11E-06
    38 Broy./Diag. 0.10E+00   20.9     0.00000267       -88.7813214669  3.87E-06
    39 Broy./Diag. 0.10E+00   20.7     0.00000194       -88.7813177805  3.69E-06
    40 Broy./Diag. 0.10E+00   20.8     0.00000232       -88.7813169229  8.58E-07
    41 Broy./Diag. 0.10E+00   20.8     0.00000106       -88.7813181013 -1.18E-06
    42 Broy./Diag. 0.10E+00   20.7     0.00000212       -88.7813194382 -1.34E-06
    43 Broy./Diag. 0.10E+00   20.7     0.00000056       -88.7813197941 -3.56E-07
    44 Broy./Diag. 0.10E+00   20.7     0.00000089       -88.7813197453  4.87E-08
    45 Broy./Diag. 0.10E+00   20.7     0.00000169       -88.7813193481  3.97E-07
    46 Broy./Diag. 0.10E+00   20.9     0.00000084       -88.7813190005  3.48E-07
    47 Broy./Diag. 0.10E+00   20.7     0.00000076       -88.7813190255 -2.50E-08
    48 Broy./Diag. 0.10E+00   20.8     0.00000017       -88.7813191622 -1.37E-07
    49 Broy./Diag. 0.10E+00   20.8     0.00000017       -88.7813193229 -1.61E-07
    50 Broy./Diag. 0.10E+00   20.8     0.00000013       -88.7813192397  8.32E-08
    51 Broy./Diag. 0.10E+00   20.7     0.00000008       -88.7813189803  2.59E-07
    52 Broy./Diag. 0.10E+00   21.0     0.00000044       -88.7813186402  3.40E-07
    53 Broy./Diag. 0.10E+00   20.7     0.00000010       -88.7813185612  7.90E-08
    54 Broy./Diag. 0.10E+00   20.7     0.00000047       -88.7813186154 -5.42E-08
    55 Broy./Diag. 0.10E+00   20.7     0.00000014       -88.7813187373 -1.22E-07
    56 Broy./Diag. 0.10E+00   20.7     0.00000020       -88.7813187954 -5.80E-08
    57 Broy./Diag. 0.10E+00   20.9     0.00000005       -88.7813187906  4.77E-09
    58 Broy./Diag. 0.10E+00   20.7     0.00000002       -88.7813187652  2.54E-08
    59 Broy./Diag. 0.10E+00   20.9     0.00000011       -88.7813187325  3.27E-08
    60 Broy./Diag. 0.10E+00   20.9     0.00000005       -88.7813187180  1.45E-08
    61 Broy./Diag. 0.10E+00   21.0     0.00000011       -88.7813187785 -6.05E-08
    62 Broy./Diag. 0.10E+00   20.8     0.00000009       -88.7813188285 -5.00E-08
    63 Broy./Diag. 0.10E+00   20.7     0.00000008       -88.7813188153  1.32E-08
    64 Broy./Diag. 0.10E+00   20.8     0.00000007       -88.7813187698  4.55E-08
    65 Broy./Diag. 0.10E+00   20.7     0.00000002       -88.7813187389  3.09E-08
    66 Broy./Diag. 0.10E+00   20.8     0.00000005       -88.7813187223  1.65E-08
    67 Broy./Diag. 0.10E+00   20.9     9.4623E-09       -88.7813187268 -4.46E-09
    68 Broy./Diag. 0.10E+00   21.0     0.00000002       -88.7813187337 -6.92E-09
    69 Broy./Diag. 0.10E+00   20.8     9.6981E-09       -88.7813187352 -1.48E-09
    70 Broy./Diag. 0.10E+00   20.9     8.7845E-09       -88.7813187346  5.72E-10
    71 Broy./Diag. 0.10E+00   20.8     0.00000002       -88.7813187286  6.00E-09
    72 Broy./Diag. 0.10E+00   20.8     5.6155E-09       -88.7813187206  8.01E-09
    73 Broy./Diag. 0.10E+00   21.0     0.00000001       -88.7813187216 -1.01E-09
    74 Broy./Diag. 0.10E+00   20.7     2.2980E-09       -88.7813187258 -4.19E-09
    75 Broy./Diag. 0.10E+00   20.9     6.1500E-10       -88.7813187274 -1.64E-09

  *** SCF run converged in    75 steps ***


  Electronic density on regular grids:        -26.0000000000        0.0000000000
  Core density on regular grids:               26.0000000000       -0.0000000000
  Hard and soft densities (Lebedev):           -0.0000000000       -0.0000000000
  Total Rho_soft + Rho1_hard - Rho1_soft      -26.0000000000
  Total charge density (r-space):              -0.0000000000
  Total Rho_soft + Rho0_soft (g-space):        -0.0000000000

  Overlap energy of the core charge distribution:               0.00000000253966
  Self energy of the core charge distribution:               -150.74906861990314
  Core Hamiltonian energy:                                     32.90945573004422
  Hartree energy:                                              41.31559494592983
  Exchange-correlation energy:                                -12.25730078605988

  GAPW| Exc from hard and soft atomic rho1:                     0.00000000000000
  GAPW| local Eh = 1 center integrals:                          0.00000000000000

  Total energy:                                               -88.78131872744932

 !-----------------------------------------------------------------------------!
                     Mulliken Population Analysis

 #  Atom  Element  Kind  Atomic population                           Net charge
       1     W        1         12.512871                              1.487129
       2     S        2          6.743551                             -0.743551
       3     S        2          6.743578                             -0.743578
 # Total charge                             26.000000                  0.000000

 !-----------------------------------------------------------------------------!

 !-----------------------------------------------------------------------------!
                           Hirshfeld Charges

  #Atom  Element  Kind  Ref Charge     Population                    Net charge
      1       W      1      14.000         15.115                        -1.115
      2       S      2       6.000          5.442                         0.558
      3       S      2       6.000          5.442                         0.558

  Total Charge                                                            0.000
 !-----------------------------------------------------------------------------!
  
 -------------------------------------------------------------------------------
 -                                                                             -
 -                          BANDSTRUCTURE CALCULATION                          -
 -                                                                             -
 -------------------------------------------------------------------------------
  
 Number of occupied molecular orbitals (MOs) = Number of occupied bands       13
 Number of unoccupied (= virtual) MOs = Number of unoccupied bands           162
 Number of Gaussian basis functions for MOs                                  175
 Number of cells considered in the DFT calculation                           367
 Number of cells for G, , W,                                               961
 Number of special k-points for the bandstructure                              2
 Number of k-points for the bandstructure                                   1074
  
 -------------------------------------------------------------------------------
 -                                                                             -
 -                              GW CALCULATION                                 -
 -                                                                             -
 -------------------------------------------------------------------------------
  
 Input: Number of time/freq. points                                           30
 Input: Filter threshold for sparse tensor operations                    1.0E-11
 Apply Hedin shift                                                             F
  
 Number of auxiliary Gaussian basis functions for , , W                    335
 Cutoff radius for the truncated Coulomb operator in ^x:                 42.8 
 Cutoff radius for the truncated Coulomb operator in RI metric:            7.0 
 Regularization parameter of RI                                          1.0E-02
 Lattice sum size for V(k):                                                    3
  
 K-point mesh 1 for , , W                                          128 128   1
 K-point mesh 2 for , , W (for k-point extrapolation of W)         256 256   1
 Approximate the k-point extrapolation                                         F
 Radius of atomic orbitals                                                16.6 
 Radius of RI functions                                                    7.8 
 Number of cells for 3c integrals                                            315
 Number of cell pairs for 3c integrals                                     30363
 
 Input: Available memory per MPI process                                 30.0 GB
 Used memory per MPI process before GW run                                1.1 GB
 Memory of three-center integrals                                      2492.0 GB
 Group size for tensor operations                                             96
 The requested group size is > 1 which can lead to bad performance.
 Using more memory per MPI process might improve performance.
 (Also increase MEMORY_PER_PROC when using more memory per process.)
 Number of cells R                                                         1216
 Min. abs. eigenvalue of RI metric matrix M(k)                           2.7E-06
 Max. abs. eigenvalue of RI metric matrix M(k)                           2.2E+03
 Max. condition number of M(k)                                           8.1E+08
 
 SCF direct band gap (eV)                                                   1.81
 Max. SCF eigval diff. (eV)                                            272187.86
 E-Range for minimax grid                                              150190.87
 Number of Pad parameters for analytic continuation:                         10
 
