 DBCSR| CPU Multiplication driver                                           BLAS (U)
 DBCSR| Multrec recursion limit                                              512 (U)
 DBCSR| Multiplication stack size                                           1000 (D)
 DBCSR| Maximum elements for images                                    UNLIMITED (U)
 DBCSR| Multiplicative factor virtual images                                   1 (U)
 DBCSR| Use multiplication densification                                       T (D)
 DBCSR| Multiplication size stacks                                             3 (U)
 DBCSR| Use memory pool for CPU allocation                                     F (U)
 DBCSR| Number of 3D layers                                               SINGLE (U)
 DBCSR| Use MPI memory allocation                                              F (U)
 DBCSR| Use RMA algorithm                                                      F (U)
 DBCSR| Use Communication thread                                               T (U)
 DBCSR| Communication thread load                                             60 (D)
 DBCSR| MPI: My process id                                                     0
 DBCSR| MPI: Number of processes                                              96
 DBCSR| OMP: Current number of threads                                         8
 DBCSR| OMP: Max number of threads                                             8
 DBCSR| Split modifier for TAS multiplication algorithm                  1.0E+00 (U)


  **** **** ******  **  PROGRAM STARTED AT               2024-12-11 11:31:54.913
 ***** ** ***  *** **   PROGRAM STARTED ON                          f01r01c04s11
 **    ****   ******    PROGRAM STARTED BY                               di38fab
 ***** **    ** ** **   PROGRAM PROCESS ID                                682955
  **** **  *******  **  PROGRAM STARTED IN /hppfs/scratch/04/di38fab/04_TMD/3_WS
                                           2__

 CP2K| version string:                 CP2K version 2024.2 (Development Version)
 CP2K| source code revision number:                                  git:9b99305
 CP2K| cp2kflags: omp libint fftw3 libxc parallel scalapack max_contr=4         
 CP2K| is freely available from                            https://www.cp2k.org/
 CP2K| Program compiled at                         Fri Aug 30 17:20:17 CEST 2024
 CP2K| Program compiled on                                               login04
 CP2K| Program compiled for                                        Supermuc-foss
 CP2K| Data directory path                  /hppfs/work/pn36zo/di38fab/cp2k/data
 CP2K| Input file name                                                    GW.inp

 GLOBAL| Force Environment number                                              1
 GLOBAL| Basis set file name            ../BASIS_AUG_MOLOPT/BASIS_GTH_MOLOPT_AUG
 GLOBAL| Potential file name            /hppfs/work/pn36zo/di38fab/cp2k/data/GTH
 GLOBAL| MM Potential file name                                     MM_POTENTIAL
 GLOBAL| Coordinate file name                                      __STD_INPUT__
 GLOBAL| Method name                                                        CP2K
 GLOBAL| Project name                                                        WS2
 GLOBAL| Run type                                                         ENERGY
 GLOBAL| FFT library                                                       FFTW3
 GLOBAL| Diagonalization library                                       ScaLAPACK
 GLOBAL| DGEMM library                                                      BLAS
 GLOBAL| Orthonormality check for eigenvectors                          DISABLED
 GLOBAL| Matrix multiplication library                                 ScaLAPACK
 GLOBAL| All-to-all communication in single precision                          F
 GLOBAL| FFTs using library dependent lengths                                  F
 GLOBAL| Grid backend                                                       AUTO
 GLOBAL| Global print level                                               MEDIUM
 GLOBAL| MPI I/O enabled                                                       T
 GLOBAL| Total number of message passing processes                            96
 GLOBAL| Number of threads for this process                                    8
 GLOBAL| This output is from process                                           0
 GLOBAL| Stack size for threads created by OpenMP (OMP_STACKSIZE)        default
 GLOBAL| CPU model name             Intel(R) Xeon(R) Platinum 8174 CPU @ 3.10GHz

 MEMORY| system memory details [Kb]
 MEMORY|                        rank 0           min           max       average
 MEMORY| MemTotal            792068884     792068880     792068924     792068896
 MEMORY| MemFree             779022612     779022612     779231712     779122017
 MEMORY| Buffers                     0             0             0             0
 MEMORY| Cached                2312288       2295024       2320204       2307260
 MEMORY| Slab                  1102120       1078356       1106440       1093380
 MEMORY| SReclaimable           242492        232776        249200        241495
 MEMORY| MemLikelyFree       781577392     781577392     781784092     781670773


 *** Fundamental physical constants (SI units) ***

 *** Literature: B. J. Mohr and B. N. Taylor,
 ***             CODATA recommended values of the fundamental physical
 ***             constants: 2006, Web Version 5.1
 ***             http://physics.nist.gov/constants

 Speed of light in vacuum [m/s]                             2.99792458000000E+08
 Magnetic constant or permeability of vacuum [N/A**2]       1.25663706143592E-06
 Electric constant or permittivity of vacuum [F/m]          8.85418781762039E-12
 Planck constant (h) [J*s]                                  6.62606896000000E-34
 Planck constant (h-bar) [J*s]                              1.05457162825177E-34
 Elementary charge [C]                                      1.60217648700000E-19
 Electron mass [kg]                                         9.10938215000000E-31
 Electron g factor [ ]                                     -2.00231930436220E+00
 Proton mass [kg]                                           1.67262163700000E-27
 Fine-structure constant                                    7.29735253760000E-03
 Rydberg constant [1/m]                                     1.09737315685270E+07
 Avogadro constant [1/mol]                                  6.02214179000000E+23
 Boltzmann constant [J/K]                                   1.38065040000000E-23
 Atomic mass unit [kg]                                      1.66053878200000E-27
 Bohr radius [m]                                            5.29177208590000E-11

 *** Conversion factors ***

 [u] -> [a.u.]                                              1.82288848426455E+03
 [Angstrom] -> [Bohr] = [a.u.]                              1.88972613288564E+00
 [a.u.] = [Bohr] -> [Angstrom]                              5.29177208590000E-01
 [a.u.] -> [s]                                              2.41888432650478E-17
 [a.u.] -> [fs]                                             2.41888432650478E-02
 [a.u.] -> [J]                                              4.35974393937059E-18
 [a.u.] -> [N]                                              8.23872205491840E-08
 [a.u.] -> [K]                                              3.15774647902944E+05
 [a.u.] -> [kJ/mol]                                         2.62549961709828E+03
 [a.u.] -> [kcal/mol]                                       6.27509468713739E+02
 [a.u.] -> [Pa]                                             2.94210107994716E+13
 [a.u.] -> [bar]                                            2.94210107994716E+08
 [a.u.] -> [atm]                                            2.90362800883016E+08
 [a.u.] -> [eV]                                             2.72113838565563E+01
 [a.u.] -> [Hz]                                             6.57968392072181E+15
 [a.u.] -> [1/cm] (wave numbers)                            2.19474631370540E+05
 [a.u./Bohr**2] -> [1/cm]                                   5.14048714338585E+03
 

 CELL_TOP| Volume [angstrom^3]:                                       131.860110
 CELL_TOP| Vector a [angstrom     3.186     0.000     0.000   |a| =     3.186000
 CELL_TOP| Vector b [angstrom    -1.593     2.759     0.000   |b| =     3.186000
 CELL_TOP| Vector c [angstrom     0.000     0.000    15.000   |c| =    15.000000
 CELL_TOP| Angle (b,c), alpha [degree]:                                90.000000
 CELL_TOP| Angle (a,c), beta  [degree]:                                90.000000
 CELL_TOP| Angle (a,b), gamma [degree]:                               120.000000
 CELL_TOP| Numerically orthorhombic:                                          NO
 CELL_TOP| Periodicity                                                        XY

 GENERATE|  Preliminary Number of Bonds generated:                             0
 GENERATE|  Achieved consistency in connectivity generation.

 CELL| Volume [angstrom^3]:                                           131.860110
 CELL| Vector a [angstrom]:       3.186     0.000     0.000   |a| =     3.186000
 CELL| Vector b [angstrom]:      -1.593     2.759     0.000   |b| =     3.186000
 CELL| Vector c [angstrom]:       0.000     0.000    15.000   |c| =    15.000000
 CELL| Angle (b,c), alpha [degree]:                                    90.000000
 CELL| Angle (a,c), beta  [degree]:                                    90.000000
 CELL| Angle (a,b), gamma [degree]:                                   120.000000
 CELL| Numerically orthorhombic:                                              NO
 CELL| Periodicity                                                            XY

 CELL_REF| Volume [angstrom^3]:                                       131.860110
 CELL_REF| Vector a [angstrom     3.186     0.000     0.000   |a| =     3.186000
 CELL_REF| Vector b [angstrom    -1.593     2.759     0.000   |b| =     3.186000
 CELL_REF| Vector c [angstrom     0.000     0.000    15.000   |c| =    15.000000
 CELL_REF| Angle (b,c), alpha [degree]:                                90.000000
 CELL_REF| Angle (a,c), beta  [degree]:                                90.000000
 CELL_REF| Angle (a,b), gamma [degree]:                               120.000000
 CELL_REF| Numerically orthorhombic:                                          NO
 CELL_REF| Periodicity                                                        XY

 *** WARNING in cryssym.F:180 :: Symmetry library SPGLIB not available ***


 *******************************************************************************
                                    Kpoints
 *******************************************************************************
 BRILLOUIN| K-point scheme                                        Monkhorst-Pack
 BRILLOUIN| K-Point grid                                            32   32    1
 BRILLOUIN| Accuracy in Symmetry determination                      0.100000E-05
 BRILLOUIN| K-Point point group symmetrization                               OFF
 BRILLOUIN| Wavefunction type                                            COMPLEX
 BRILLOUIN| List of Kpoints [2 Pi/Bohr]                                      512
 BRILLOUIN| Number           Weight            X              Y              Z
 BRILLOUIN|     1           0.00195       -0.48438       -0.48438        0.00000
 BRILLOUIN|     2           0.00195       -0.48438       -0.45312        0.00000
 BRILLOUIN|     3           0.00195       -0.48438       -0.42188        0.00000
 BRILLOUIN|     4           0.00195       -0.48438       -0.39062        0.00000
 BRILLOUIN|     5           0.00195       -0.48438       -0.35938        0.00000
 BRILLOUIN|     6           0.00195       -0.48438       -0.32812        0.00000
 BRILLOUIN|     7           0.00195       -0.48438       -0.29688        0.00000
 BRILLOUIN|     8           0.00195       -0.48438       -0.26562        0.00000
 BRILLOUIN|     9           0.00195       -0.48438       -0.23438        0.00000
 BRILLOUIN|    10           0.00195       -0.48438       -0.20312        0.00000
 BRILLOUIN|    11           0.00195       -0.48438       -0.17188        0.00000
 BRILLOUIN|    12           0.00195       -0.48438       -0.14062        0.00000
 BRILLOUIN|    13           0.00195       -0.48438       -0.10938        0.00000
 BRILLOUIN|    14           0.00195       -0.48438       -0.07812        0.00000
 BRILLOUIN|    15           0.00195       -0.48438       -0.04688        0.00000
 BRILLOUIN|    16           0.00195       -0.48438       -0.01562        0.00000
 BRILLOUIN|    17           0.00195       -0.48438        0.01562        0.00000
 BRILLOUIN|    18           0.00195       -0.48438        0.04688        0.00000
 BRILLOUIN|    19           0.00195       -0.48438        0.07812        0.00000
 BRILLOUIN|    20           0.00195       -0.48438        0.10938        0.00000
 BRILLOUIN|    21           0.00195       -0.48438        0.14062        0.00000
 BRILLOUIN|    22           0.00195       -0.48438        0.17188        0.00000
 BRILLOUIN|    23           0.00195       -0.48438        0.20312        0.00000
 BRILLOUIN|    24           0.00195       -0.48438        0.23438        0.00000
 BRILLOUIN|    25           0.00195       -0.48438        0.26562        0.00000
 BRILLOUIN|    26           0.00195       -0.48438        0.29688        0.00000
 BRILLOUIN|    27           0.00195       -0.48438        0.32812        0.00000
 BRILLOUIN|    28           0.00195       -0.48438        0.35938        0.00000
 BRILLOUIN|    29           0.00195       -0.48438        0.39062        0.00000
 BRILLOUIN|    30           0.00195       -0.48438        0.42188        0.00000
 BRILLOUIN|    31           0.00195       -0.48438        0.45312        0.00000
 BRILLOUIN|    32           0.00195       -0.48438        0.48438        0.00000
 BRILLOUIN|    33           0.00195       -0.45312       -0.48438        0.00000
 BRILLOUIN|    34           0.00195       -0.45312       -0.45312        0.00000
 BRILLOUIN|    35           0.00195       -0.45312       -0.42188        0.00000
 BRILLOUIN|    36           0.00195       -0.45312       -0.39062        0.00000
 BRILLOUIN|    37           0.00195       -0.45312       -0.35938        0.00000
 BRILLOUIN|    38           0.00195       -0.45312       -0.32812        0.00000
 BRILLOUIN|    39           0.00195       -0.45312       -0.29688        0.00000
 BRILLOUIN|    40           0.00195       -0.45312       -0.26562        0.00000
 BRILLOUIN|    41           0.00195       -0.45312       -0.23438        0.00000
 BRILLOUIN|    42           0.00195       -0.45312       -0.20312        0.00000
 BRILLOUIN|    43           0.00195       -0.45312       -0.17188        0.00000
 BRILLOUIN|    44           0.00195       -0.45312       -0.14062        0.00000
 BRILLOUIN|    45           0.00195       -0.45312       -0.10938        0.00000
 BRILLOUIN|    46           0.00195       -0.45312       -0.07812        0.00000
 BRILLOUIN|    47           0.00195       -0.45312       -0.04688        0.00000
 BRILLOUIN|    48           0.00195       -0.45312       -0.01562        0.00000
 BRILLOUIN|    49           0.00195       -0.45312        0.01562        0.00000
 BRILLOUIN|    50           0.00195       -0.45312        0.04688        0.00000
 BRILLOUIN|    51           0.00195       -0.45312        0.07812        0.00000
 BRILLOUIN|    52           0.00195       -0.45312        0.10938        0.00000
 BRILLOUIN|    53           0.00195       -0.45312        0.14062        0.00000
 BRILLOUIN|    54           0.00195       -0.45312        0.17188        0.00000
 BRILLOUIN|    55           0.00195       -0.45312        0.20312        0.00000
 BRILLOUIN|    56           0.00195       -0.45312        0.23438        0.00000
 BRILLOUIN|    57           0.00195       -0.45312        0.26562        0.00000
 BRILLOUIN|    58           0.00195       -0.45312        0.29688        0.00000
 BRILLOUIN|    59           0.00195       -0.45312        0.32812        0.00000
 BRILLOUIN|    60           0.00195       -0.45312        0.35938        0.00000
 BRILLOUIN|    61           0.00195       -0.45312        0.39062        0.00000
 BRILLOUIN|    62           0.00195       -0.45312        0.42188        0.00000
 BRILLOUIN|    63           0.00195       -0.45312        0.45312        0.00000
 BRILLOUIN|    64           0.00195       -0.45312        0.48438        0.00000
 BRILLOUIN|    65           0.00195       -0.42188       -0.48438        0.00000
 BRILLOUIN|    66           0.00195       -0.42188       -0.45312        0.00000
 BRILLOUIN|    67           0.00195       -0.42188       -0.42188        0.00000
 BRILLOUIN|    68           0.00195       -0.42188       -0.39062        0.00000
 BRILLOUIN|    69           0.00195       -0.42188       -0.35938        0.00000
 BRILLOUIN|    70           0.00195       -0.42188       -0.32812        0.00000
 BRILLOUIN|    71           0.00195       -0.42188       -0.29688        0.00000
 BRILLOUIN|    72           0.00195       -0.42188       -0.26562        0.00000
 BRILLOUIN|    73           0.00195       -0.42188       -0.23438        0.00000
 BRILLOUIN|    74           0.00195       -0.42188       -0.20312        0.00000
 BRILLOUIN|    75           0.00195       -0.42188       -0.17188        0.00000
 BRILLOUIN|    76           0.00195       -0.42188       -0.14062        0.00000
 BRILLOUIN|    77           0.00195       -0.42188       -0.10938        0.00000
 BRILLOUIN|    78           0.00195       -0.42188       -0.07812        0.00000
 BRILLOUIN|    79           0.00195       -0.42188       -0.04688        0.00000
 BRILLOUIN|    80           0.00195       -0.42188       -0.01562        0.00000
 BRILLOUIN|    81           0.00195       -0.42188        0.01562        0.00000
 BRILLOUIN|    82           0.00195       -0.42188        0.04688        0.00000
 BRILLOUIN|    83           0.00195       -0.42188        0.07812        0.00000
 BRILLOUIN|    84           0.00195       -0.42188        0.10938        0.00000
 BRILLOUIN|    85           0.00195       -0.42188        0.14062        0.00000
 BRILLOUIN|    86           0.00195       -0.42188        0.17188        0.00000
 BRILLOUIN|    87           0.00195       -0.42188        0.20312        0.00000
 BRILLOUIN|    88           0.00195       -0.42188        0.23438        0.00000
 BRILLOUIN|    89           0.00195       -0.42188        0.26562        0.00000
 BRILLOUIN|    90           0.00195       -0.42188        0.29688        0.00000
 BRILLOUIN|    91           0.00195       -0.42188        0.32812        0.00000
 BRILLOUIN|    92           0.00195       -0.42188        0.35938        0.00000
 BRILLOUIN|    93           0.00195       -0.42188        0.39062        0.00000
 BRILLOUIN|    94           0.00195       -0.42188        0.42188        0.00000
 BRILLOUIN|    95           0.00195       -0.42188        0.45312        0.00000
 BRILLOUIN|    96           0.00195       -0.42188        0.48438        0.00000
 BRILLOUIN|    97           0.00195       -0.39062       -0.48438        0.00000
 BRILLOUIN|    98           0.00195       -0.39062       -0.45312        0.00000
 BRILLOUIN|    99           0.00195       -0.39062       -0.42188        0.00000
 BRILLOUIN|   100           0.00195       -0.39062       -0.39062        0.00000
 BRILLOUIN|   101           0.00195       -0.39062       -0.35938        0.00000
 BRILLOUIN|   102           0.00195       -0.39062       -0.32812        0.00000
 BRILLOUIN|   103           0.00195       -0.39062       -0.29688        0.00000
 BRILLOUIN|   104           0.00195       -0.39062       -0.26562        0.00000
 BRILLOUIN|   105           0.00195       -0.39062       -0.23438        0.00000
 BRILLOUIN|   106           0.00195       -0.39062       -0.20312        0.00000
 BRILLOUIN|   107           0.00195       -0.39062       -0.17188        0.00000
 BRILLOUIN|   108           0.00195       -0.39062       -0.14062        0.00000
 BRILLOUIN|   109           0.00195       -0.39062       -0.10938        0.00000
 BRILLOUIN|   110           0.00195       -0.39062       -0.07812        0.00000
 BRILLOUIN|   111           0.00195       -0.39062       -0.04688        0.00000
 BRILLOUIN|   112           0.00195       -0.39062       -0.01562        0.00000
 BRILLOUIN|   113           0.00195       -0.39062        0.01562        0.00000
 BRILLOUIN|   114           0.00195       -0.39062        0.04688        0.00000
 BRILLOUIN|   115           0.00195       -0.39062        0.07812        0.00000
 BRILLOUIN|   116           0.00195       -0.39062        0.10938        0.00000
 BRILLOUIN|   117           0.00195       -0.39062        0.14062        0.00000
 BRILLOUIN|   118           0.00195       -0.39062        0.17188        0.00000
 BRILLOUIN|   119           0.00195       -0.39062        0.20312        0.00000
 BRILLOUIN|   120           0.00195       -0.39062        0.23438        0.00000
 BRILLOUIN|   121           0.00195       -0.39062        0.26562        0.00000
 BRILLOUIN|   122           0.00195       -0.39062        0.29688        0.00000
 BRILLOUIN|   123           0.00195       -0.39062        0.32812        0.00000
 BRILLOUIN|   124           0.00195       -0.39062        0.35938        0.00000
 BRILLOUIN|   125           0.00195       -0.39062        0.39062        0.00000
 BRILLOUIN|   126           0.00195       -0.39062        0.42188        0.00000
 BRILLOUIN|   127           0.00195       -0.39062        0.45312        0.00000
 BRILLOUIN|   128           0.00195       -0.39062        0.48438        0.00000
 BRILLOUIN|   129           0.00195       -0.35938       -0.48438        0.00000
 BRILLOUIN|   130           0.00195       -0.35938       -0.45312        0.00000
 BRILLOUIN|   131           0.00195       -0.35938       -0.42188        0.00000
 BRILLOUIN|   132           0.00195       -0.35938       -0.39062        0.00000
 BRILLOUIN|   133           0.00195       -0.35938       -0.35938        0.00000
 BRILLOUIN|   134           0.00195       -0.35938       -0.32812        0.00000
 BRILLOUIN|   135           0.00195       -0.35938       -0.29688        0.00000
 BRILLOUIN|   136           0.00195       -0.35938       -0.26562        0.00000
 BRILLOUIN|   137           0.00195       -0.35938       -0.23438        0.00000
 BRILLOUIN|   138           0.00195       -0.35938       -0.20312        0.00000
 BRILLOUIN|   139           0.00195       -0.35938       -0.17188        0.00000
 BRILLOUIN|   140           0.00195       -0.35938       -0.14062        0.00000
 BRILLOUIN|   141           0.00195       -0.35938       -0.10938        0.00000
 BRILLOUIN|   142           0.00195       -0.35938       -0.07812        0.00000
 BRILLOUIN|   143           0.00195       -0.35938       -0.04688        0.00000
 BRILLOUIN|   144           0.00195       -0.35938       -0.01562        0.00000
 BRILLOUIN|   145           0.00195       -0.35938        0.01562        0.00000
 BRILLOUIN|   146           0.00195       -0.35938        0.04688        0.00000
 BRILLOUIN|   147           0.00195       -0.35938        0.07812        0.00000
 BRILLOUIN|   148           0.00195       -0.35938        0.10938        0.00000
 BRILLOUIN|   149           0.00195       -0.35938        0.14062        0.00000
 BRILLOUIN|   150           0.00195       -0.35938        0.17188        0.00000
 BRILLOUIN|   151           0.00195       -0.35938        0.20312        0.00000
 BRILLOUIN|   152           0.00195       -0.35938        0.23438        0.00000
 BRILLOUIN|   153           0.00195       -0.35938        0.26562        0.00000
 BRILLOUIN|   154           0.00195       -0.35938        0.29688        0.00000
 BRILLOUIN|   155           0.00195       -0.35938        0.32812        0.00000
 BRILLOUIN|   156           0.00195       -0.35938        0.35938        0.00000
 BRILLOUIN|   157           0.00195       -0.35938        0.39062        0.00000
 BRILLOUIN|   158           0.00195       -0.35938        0.42188        0.00000
 BRILLOUIN|   159           0.00195       -0.35938        0.45312        0.00000
 BRILLOUIN|   160           0.00195       -0.35938        0.48438        0.00000
 BRILLOUIN|   161           0.00195       -0.32812       -0.48438        0.00000
 BRILLOUIN|   162           0.00195       -0.32812       -0.45312        0.00000
 BRILLOUIN|   163           0.00195       -0.32812       -0.42188        0.00000
 BRILLOUIN|   164           0.00195       -0.32812       -0.39062        0.00000
 BRILLOUIN|   165           0.00195       -0.32812       -0.35938        0.00000
 BRILLOUIN|   166           0.00195       -0.32812       -0.32812        0.00000
 BRILLOUIN|   167           0.00195       -0.32812       -0.29688        0.00000
 BRILLOUIN|   168           0.00195       -0.32812       -0.26562        0.00000
 BRILLOUIN|   169           0.00195       -0.32812       -0.23438        0.00000
 BRILLOUIN|   170           0.00195       -0.32812       -0.20312        0.00000
 BRILLOUIN|   171           0.00195       -0.32812       -0.17188        0.00000
 BRILLOUIN|   172           0.00195       -0.32812       -0.14062        0.00000
 BRILLOUIN|   173           0.00195       -0.32812       -0.10938        0.00000
 BRILLOUIN|   174           0.00195       -0.32812       -0.07812        0.00000
 BRILLOUIN|   175           0.00195       -0.32812       -0.04688        0.00000
 BRILLOUIN|   176           0.00195       -0.32812       -0.01562        0.00000
 BRILLOUIN|   177           0.00195       -0.32812        0.01562        0.00000
 BRILLOUIN|   178           0.00195       -0.32812        0.04688        0.00000
 BRILLOUIN|   179           0.00195       -0.32812        0.07812        0.00000
 BRILLOUIN|   180           0.00195       -0.32812        0.10938        0.00000
 BRILLOUIN|   181           0.00195       -0.32812        0.14062        0.00000
 BRILLOUIN|   182           0.00195       -0.32812        0.17188        0.00000
 BRILLOUIN|   183           0.00195       -0.32812        0.20312        0.00000
 BRILLOUIN|   184           0.00195       -0.32812        0.23438        0.00000
 BRILLOUIN|   185           0.00195       -0.32812        0.26562        0.00000
 BRILLOUIN|   186           0.00195       -0.32812        0.29688        0.00000
 BRILLOUIN|   187           0.00195       -0.32812        0.32812        0.00000
 BRILLOUIN|   188           0.00195       -0.32812        0.35938        0.00000
 BRILLOUIN|   189           0.00195       -0.32812        0.39062        0.00000
 BRILLOUIN|   190           0.00195       -0.32812        0.42188        0.00000
 BRILLOUIN|   191           0.00195       -0.32812        0.45312        0.00000
 BRILLOUIN|   192           0.00195       -0.32812        0.48438        0.00000
 BRILLOUIN|   193           0.00195       -0.29688       -0.48438        0.00000
 BRILLOUIN|   194           0.00195       -0.29688       -0.45312        0.00000
 BRILLOUIN|   195           0.00195       -0.29688       -0.42188        0.00000
 BRILLOUIN|   196           0.00195       -0.29688       -0.39062        0.00000
 BRILLOUIN|   197           0.00195       -0.29688       -0.35938        0.00000
 BRILLOUIN|   198           0.00195       -0.29688       -0.32812        0.00000
 BRILLOUIN|   199           0.00195       -0.29688       -0.29688        0.00000
 BRILLOUIN|   200           0.00195       -0.29688       -0.26562        0.00000
 BRILLOUIN|   201           0.00195       -0.29688       -0.23438        0.00000
 BRILLOUIN|   202           0.00195       -0.29688       -0.20312        0.00000
 BRILLOUIN|   203           0.00195       -0.29688       -0.17188        0.00000
 BRILLOUIN|   204           0.00195       -0.29688       -0.14062        0.00000
 BRILLOUIN|   205           0.00195       -0.29688       -0.10938        0.00000
 BRILLOUIN|   206           0.00195       -0.29688       -0.07812        0.00000
 BRILLOUIN|   207           0.00195       -0.29688       -0.04688        0.00000
 BRILLOUIN|   208           0.00195       -0.29688       -0.01562        0.00000
 BRILLOUIN|   209           0.00195       -0.29688        0.01562        0.00000
 BRILLOUIN|   210           0.00195       -0.29688        0.04688        0.00000
 BRILLOUIN|   211           0.00195       -0.29688        0.07812        0.00000
 BRILLOUIN|   212           0.00195       -0.29688        0.10938        0.00000
 BRILLOUIN|   213           0.00195       -0.29688        0.14062        0.00000
 BRILLOUIN|   214           0.00195       -0.29688        0.17188        0.00000
 BRILLOUIN|   215           0.00195       -0.29688        0.20312        0.00000
 BRILLOUIN|   216           0.00195       -0.29688        0.23438        0.00000
 BRILLOUIN|   217           0.00195       -0.29688        0.26562        0.00000
 BRILLOUIN|   218           0.00195       -0.29688        0.29688        0.00000
 BRILLOUIN|   219           0.00195       -0.29688        0.32812        0.00000
 BRILLOUIN|   220           0.00195       -0.29688        0.35938        0.00000
 BRILLOUIN|   221           0.00195       -0.29688        0.39062        0.00000
 BRILLOUIN|   222           0.00195       -0.29688        0.42188        0.00000
 BRILLOUIN|   223           0.00195       -0.29688        0.45312        0.00000
 BRILLOUIN|   224           0.00195       -0.29688        0.48438        0.00000
 BRILLOUIN|   225           0.00195       -0.26562       -0.48438        0.00000
 BRILLOUIN|   226           0.00195       -0.26562       -0.45312        0.00000
 BRILLOUIN|   227           0.00195       -0.26562       -0.42188        0.00000
 BRILLOUIN|   228           0.00195       -0.26562       -0.39062        0.00000
 BRILLOUIN|   229           0.00195       -0.26562       -0.35938        0.00000
 BRILLOUIN|   230           0.00195       -0.26562       -0.32812        0.00000
 BRILLOUIN|   231           0.00195       -0.26562       -0.29688        0.00000
 BRILLOUIN|   232           0.00195       -0.26562       -0.26562        0.00000
 BRILLOUIN|   233           0.00195       -0.26562       -0.23438        0.00000
 BRILLOUIN|   234           0.00195       -0.26562       -0.20312        0.00000
 BRILLOUIN|   235           0.00195       -0.26562       -0.17188        0.00000
 BRILLOUIN|   236           0.00195       -0.26562       -0.14062        0.00000
 BRILLOUIN|   237           0.00195       -0.26562       -0.10938        0.00000
 BRILLOUIN|   238           0.00195       -0.26562       -0.07812        0.00000
 BRILLOUIN|   239           0.00195       -0.26562       -0.04688        0.00000
 BRILLOUIN|   240           0.00195       -0.26562       -0.01562        0.00000
 BRILLOUIN|   241           0.00195       -0.26562        0.01562        0.00000
 BRILLOUIN|   242           0.00195       -0.26562        0.04688        0.00000
 BRILLOUIN|   243           0.00195       -0.26562        0.07812        0.00000
 BRILLOUIN|   244           0.00195       -0.26562        0.10938        0.00000
 BRILLOUIN|   245           0.00195       -0.26562        0.14062        0.00000
 BRILLOUIN|   246           0.00195       -0.26562        0.17188        0.00000
 BRILLOUIN|   247           0.00195       -0.26562        0.20312        0.00000
 BRILLOUIN|   248           0.00195       -0.26562        0.23438        0.00000
 BRILLOUIN|   249           0.00195       -0.26562        0.26562        0.00000
 BRILLOUIN|   250           0.00195       -0.26562        0.29688        0.00000
 BRILLOUIN|   251           0.00195       -0.26562        0.32812        0.00000
 BRILLOUIN|   252           0.00195       -0.26562        0.35938        0.00000
 BRILLOUIN|   253           0.00195       -0.26562        0.39062        0.00000
 BRILLOUIN|   254           0.00195       -0.26562        0.42188        0.00000
 BRILLOUIN|   255           0.00195       -0.26562        0.45312        0.00000
 BRILLOUIN|   256           0.00195       -0.26562        0.48438        0.00000
 BRILLOUIN|   257           0.00195       -0.23438       -0.48438        0.00000
 BRILLOUIN|   258           0.00195       -0.23438       -0.45312        0.00000
 BRILLOUIN|   259           0.00195       -0.23438       -0.42188        0.00000
 BRILLOUIN|   260           0.00195       -0.23438       -0.39062        0.00000
 BRILLOUIN|   261           0.00195       -0.23438       -0.35938        0.00000
 BRILLOUIN|   262           0.00195       -0.23438       -0.32812        0.00000
 BRILLOUIN|   263           0.00195       -0.23438       -0.29688        0.00000
 BRILLOUIN|   264           0.00195       -0.23438       -0.26562        0.00000
 BRILLOUIN|   265           0.00195       -0.23438       -0.23438        0.00000
 BRILLOUIN|   266           0.00195       -0.23438       -0.20312        0.00000
 BRILLOUIN|   267           0.00195       -0.23438       -0.17188        0.00000
 BRILLOUIN|   268           0.00195       -0.23438       -0.14062        0.00000
 BRILLOUIN|   269           0.00195       -0.23438       -0.10938        0.00000
 BRILLOUIN|   270           0.00195       -0.23438       -0.07812        0.00000
 BRILLOUIN|   271           0.00195       -0.23438       -0.04688        0.00000
 BRILLOUIN|   272           0.00195       -0.23438       -0.01562        0.00000
 BRILLOUIN|   273           0.00195       -0.23438        0.01562        0.00000
 BRILLOUIN|   274           0.00195       -0.23438        0.04688        0.00000
 BRILLOUIN|   275           0.00195       -0.23438        0.07812        0.00000
 BRILLOUIN|   276           0.00195       -0.23438        0.10938        0.00000
 BRILLOUIN|   277           0.00195       -0.23438        0.14062        0.00000
 BRILLOUIN|   278           0.00195       -0.23438        0.17188        0.00000
 BRILLOUIN|   279           0.00195       -0.23438        0.20312        0.00000
 BRILLOUIN|   280           0.00195       -0.23438        0.23438        0.00000
 BRILLOUIN|   281           0.00195       -0.23438        0.26562        0.00000
 BRILLOUIN|   282           0.00195       -0.23438        0.29688        0.00000
 BRILLOUIN|   283           0.00195       -0.23438        0.32812        0.00000
 BRILLOUIN|   284           0.00195       -0.23438        0.35938        0.00000
 BRILLOUIN|   285           0.00195       -0.23438        0.39062        0.00000
 BRILLOUIN|   286           0.00195       -0.23438        0.42188        0.00000
 BRILLOUIN|   287           0.00195       -0.23438        0.45312        0.00000
 BRILLOUIN|   288           0.00195       -0.23438        0.48438        0.00000
 BRILLOUIN|   289           0.00195       -0.20312       -0.48438        0.00000
 BRILLOUIN|   290           0.00195       -0.20312       -0.45312        0.00000
 BRILLOUIN|   291           0.00195       -0.20312       -0.42188        0.00000
 BRILLOUIN|   292           0.00195       -0.20312       -0.39062        0.00000
 BRILLOUIN|   293           0.00195       -0.20312       -0.35938        0.00000
 BRILLOUIN|   294           0.00195       -0.20312       -0.32812        0.00000
 BRILLOUIN|   295           0.00195       -0.20312       -0.29688        0.00000
 BRILLOUIN|   296           0.00195       -0.20312       -0.26562        0.00000
 BRILLOUIN|   297           0.00195       -0.20312       -0.23438        0.00000
 BRILLOUIN|   298           0.00195       -0.20312       -0.20312        0.00000
 BRILLOUIN|   299           0.00195       -0.20312       -0.17188        0.00000
 BRILLOUIN|   300           0.00195       -0.20312       -0.14062        0.00000
 BRILLOUIN|   301           0.00195       -0.20312       -0.10938        0.00000
 BRILLOUIN|   302           0.00195       -0.20312       -0.07812        0.00000
 BRILLOUIN|   303           0.00195       -0.20312       -0.04688        0.00000
 BRILLOUIN|   304           0.00195       -0.20312       -0.01562        0.00000
 BRILLOUIN|   305           0.00195       -0.20312        0.01562        0.00000
 BRILLOUIN|   306           0.00195       -0.20312        0.04688        0.00000
 BRILLOUIN|   307           0.00195       -0.20312        0.07812        0.00000
 BRILLOUIN|   308           0.00195       -0.20312        0.10938        0.00000
 BRILLOUIN|   309           0.00195       -0.20312        0.14062        0.00000
 BRILLOUIN|   310           0.00195       -0.20312        0.17188        0.00000
 BRILLOUIN|   311           0.00195       -0.20312        0.20312        0.00000
 BRILLOUIN|   312           0.00195       -0.20312        0.23438        0.00000
 BRILLOUIN|   313           0.00195       -0.20312        0.26562        0.00000
 BRILLOUIN|   314           0.00195       -0.20312        0.29688        0.00000
 BRILLOUIN|   315           0.00195       -0.20312        0.32812        0.00000
 BRILLOUIN|   316           0.00195       -0.20312        0.35938        0.00000
 BRILLOUIN|   317           0.00195       -0.20312        0.39062        0.00000
 BRILLOUIN|   318           0.00195       -0.20312        0.42188        0.00000
 BRILLOUIN|   319           0.00195       -0.20312        0.45312        0.00000
 BRILLOUIN|   320           0.00195       -0.20312        0.48438        0.00000
 BRILLOUIN|   321           0.00195       -0.17188       -0.48438        0.00000
 BRILLOUIN|   322           0.00195       -0.17188       -0.45312        0.00000
 BRILLOUIN|   323           0.00195       -0.17188       -0.42188        0.00000
 BRILLOUIN|   324           0.00195       -0.17188       -0.39062        0.00000
 BRILLOUIN|   325           0.00195       -0.17188       -0.35938        0.00000
 BRILLOUIN|   326           0.00195       -0.17188       -0.32812        0.00000
 BRILLOUIN|   327           0.00195       -0.17188       -0.29688        0.00000
 BRILLOUIN|   328           0.00195       -0.17188       -0.26562        0.00000
 BRILLOUIN|   329           0.00195       -0.17188       -0.23438        0.00000
 BRILLOUIN|   330           0.00195       -0.17188       -0.20312        0.00000
 BRILLOUIN|   331           0.00195       -0.17188       -0.17188        0.00000
 BRILLOUIN|   332           0.00195       -0.17188       -0.14062        0.00000
 BRILLOUIN|   333           0.00195       -0.17188       -0.10938        0.00000
 BRILLOUIN|   334           0.00195       -0.17188       -0.07812        0.00000
 BRILLOUIN|   335           0.00195       -0.17188       -0.04688        0.00000
 BRILLOUIN|   336           0.00195       -0.17188       -0.01562        0.00000
 BRILLOUIN|   337           0.00195       -0.17188        0.01562        0.00000
 BRILLOUIN|   338           0.00195       -0.17188        0.04688        0.00000
 BRILLOUIN|   339           0.00195       -0.17188        0.07812        0.00000
 BRILLOUIN|   340           0.00195       -0.17188        0.10938        0.00000
 BRILLOUIN|   341           0.00195       -0.17188        0.14062        0.00000
 BRILLOUIN|   342           0.00195       -0.17188        0.17188        0.00000
 BRILLOUIN|   343           0.00195       -0.17188        0.20312        0.00000
 BRILLOUIN|   344           0.00195       -0.17188        0.23438        0.00000
 BRILLOUIN|   345           0.00195       -0.17188        0.26562        0.00000
 BRILLOUIN|   346           0.00195       -0.17188        0.29688        0.00000
 BRILLOUIN|   347           0.00195       -0.17188        0.32812        0.00000
 BRILLOUIN|   348           0.00195       -0.17188        0.35938        0.00000
 BRILLOUIN|   349           0.00195       -0.17188        0.39062        0.00000
 BRILLOUIN|   350           0.00195       -0.17188        0.42188        0.00000
 BRILLOUIN|   351           0.00195       -0.17188        0.45312        0.00000
 BRILLOUIN|   352           0.00195       -0.17188        0.48438        0.00000
 BRILLOUIN|   353           0.00195       -0.14062       -0.48438        0.00000
 BRILLOUIN|   354           0.00195       -0.14062       -0.45312        0.00000
 BRILLOUIN|   355           0.00195       -0.14062       -0.42188        0.00000
 BRILLOUIN|   356           0.00195       -0.14062       -0.39062        0.00000
 BRILLOUIN|   357           0.00195       -0.14062       -0.35938        0.00000
 BRILLOUIN|   358           0.00195       -0.14062       -0.32812        0.00000
 BRILLOUIN|   359           0.00195       -0.14062       -0.29688        0.00000
 BRILLOUIN|   360           0.00195       -0.14062       -0.26562        0.00000
 BRILLOUIN|   361           0.00195       -0.14062       -0.23438        0.00000
 BRILLOUIN|   362           0.00195       -0.14062       -0.20312        0.00000
 BRILLOUIN|   363           0.00195       -0.14062       -0.17188        0.00000
 BRILLOUIN|   364           0.00195       -0.14062       -0.14062        0.00000
 BRILLOUIN|   365           0.00195       -0.14062       -0.10938        0.00000
 BRILLOUIN|   366           0.00195       -0.14062       -0.07812        0.00000
 BRILLOUIN|   367           0.00195       -0.14062       -0.04688        0.00000
 BRILLOUIN|   368           0.00195       -0.14062       -0.01562        0.00000
 BRILLOUIN|   369           0.00195       -0.14062        0.01562        0.00000
 BRILLOUIN|   370           0.00195       -0.14062        0.04688        0.00000
 BRILLOUIN|   371           0.00195       -0.14062        0.07812        0.00000
 BRILLOUIN|   372           0.00195       -0.14062        0.10938        0.00000
 BRILLOUIN|   373           0.00195       -0.14062        0.14062        0.00000
 BRILLOUIN|   374           0.00195       -0.14062        0.17188        0.00000
 BRILLOUIN|   375           0.00195       -0.14062        0.20312        0.00000
 BRILLOUIN|   376           0.00195       -0.14062        0.23438        0.00000
 BRILLOUIN|   377           0.00195       -0.14062        0.26562        0.00000
 BRILLOUIN|   378           0.00195       -0.14062        0.29688        0.00000
 BRILLOUIN|   379           0.00195       -0.14062        0.32812        0.00000
 BRILLOUIN|   380           0.00195       -0.14062        0.35938        0.00000
 BRILLOUIN|   381           0.00195       -0.14062        0.39062        0.00000
 BRILLOUIN|   382           0.00195       -0.14062        0.42188        0.00000
 BRILLOUIN|   383           0.00195       -0.14062        0.45312        0.00000
 BRILLOUIN|   384           0.00195       -0.14062        0.48438        0.00000
 BRILLOUIN|   385           0.00195       -0.10938       -0.48438        0.00000
 BRILLOUIN|   386           0.00195       -0.10938       -0.45312        0.00000
 BRILLOUIN|   387           0.00195       -0.10938       -0.42188        0.00000
 BRILLOUIN|   388           0.00195       -0.10938       -0.39062        0.00000
 BRILLOUIN|   389           0.00195       -0.10938       -0.35938        0.00000
 BRILLOUIN|   390           0.00195       -0.10938       -0.32812        0.00000
 BRILLOUIN|   391           0.00195       -0.10938       -0.29688        0.00000
 BRILLOUIN|   392           0.00195       -0.10938       -0.26562        0.00000
 BRILLOUIN|   393           0.00195       -0.10938       -0.23438        0.00000
 BRILLOUIN|   394           0.00195       -0.10938       -0.20312        0.00000
 BRILLOUIN|   395           0.00195       -0.10938       -0.17188        0.00000
 BRILLOUIN|   396           0.00195       -0.10938       -0.14062        0.00000
 BRILLOUIN|   397           0.00195       -0.10938       -0.10938        0.00000
 BRILLOUIN|   398           0.00195       -0.10938       -0.07812        0.00000
 BRILLOUIN|   399           0.00195       -0.10938       -0.04688        0.00000
 BRILLOUIN|   400           0.00195       -0.10938       -0.01562        0.00000
 BRILLOUIN|   401           0.00195       -0.10938        0.01562        0.00000
 BRILLOUIN|   402           0.00195       -0.10938        0.04688        0.00000
 BRILLOUIN|   403           0.00195       -0.10938        0.07812        0.00000
 BRILLOUIN|   404           0.00195       -0.10938        0.10938        0.00000
 BRILLOUIN|   405           0.00195       -0.10938        0.14062        0.00000
 BRILLOUIN|   406           0.00195       -0.10938        0.17188        0.00000
 BRILLOUIN|   407           0.00195       -0.10938        0.20312        0.00000
 BRILLOUIN|   408           0.00195       -0.10938        0.23438        0.00000
 BRILLOUIN|   409           0.00195       -0.10938        0.26562        0.00000
 BRILLOUIN|   410           0.00195       -0.10938        0.29688        0.00000
 BRILLOUIN|   411           0.00195       -0.10938        0.32812        0.00000
 BRILLOUIN|   412           0.00195       -0.10938        0.35938        0.00000
 BRILLOUIN|   413           0.00195       -0.10938        0.39062        0.00000
 BRILLOUIN|   414           0.00195       -0.10938        0.42188        0.00000
 BRILLOUIN|   415           0.00195       -0.10938        0.45312        0.00000
 BRILLOUIN|   416           0.00195       -0.10938        0.48438        0.00000
 BRILLOUIN|   417           0.00195       -0.07812       -0.48438        0.00000
 BRILLOUIN|   418           0.00195       -0.07812       -0.45312        0.00000
 BRILLOUIN|   419           0.00195       -0.07812       -0.42188        0.00000
 BRILLOUIN|   420           0.00195       -0.07812       -0.39062        0.00000
 BRILLOUIN|   421           0.00195       -0.07812       -0.35938        0.00000
 BRILLOUIN|   422           0.00195       -0.07812       -0.32812        0.00000
 BRILLOUIN|   423           0.00195       -0.07812       -0.29688        0.00000
 BRILLOUIN|   424           0.00195       -0.07812       -0.26562        0.00000
 BRILLOUIN|   425           0.00195       -0.07812       -0.23438        0.00000
 BRILLOUIN|   426           0.00195       -0.07812       -0.20312        0.00000
 BRILLOUIN|   427           0.00195       -0.07812       -0.17188        0.00000
 BRILLOUIN|   428           0.00195       -0.07812       -0.14062        0.00000
 BRILLOUIN|   429           0.00195       -0.07812       -0.10938        0.00000
 BRILLOUIN|   430           0.00195       -0.07812       -0.07812        0.00000
 BRILLOUIN|   431           0.00195       -0.07812       -0.04688        0.00000
 BRILLOUIN|   432           0.00195       -0.07812       -0.01562        0.00000
 BRILLOUIN|   433           0.00195       -0.07812        0.01562        0.00000
 BRILLOUIN|   434           0.00195       -0.07812        0.04688        0.00000
 BRILLOUIN|   435           0.00195       -0.07812        0.07812        0.00000
 BRILLOUIN|   436           0.00195       -0.07812        0.10938        0.00000
 BRILLOUIN|   437           0.00195       -0.07812        0.14062        0.00000
 BRILLOUIN|   438           0.00195       -0.07812        0.17188        0.00000
 BRILLOUIN|   439           0.00195       -0.07812        0.20312        0.00000
 BRILLOUIN|   440           0.00195       -0.07812        0.23438        0.00000
 BRILLOUIN|   441           0.00195       -0.07812        0.26562        0.00000
 BRILLOUIN|   442           0.00195       -0.07812        0.29688        0.00000
 BRILLOUIN|   443           0.00195       -0.07812        0.32812        0.00000
 BRILLOUIN|   444           0.00195       -0.07812        0.35938        0.00000
 BRILLOUIN|   445           0.00195       -0.07812        0.39062        0.00000
 BRILLOUIN|   446           0.00195       -0.07812        0.42188        0.00000
 BRILLOUIN|   447           0.00195       -0.07812        0.45312        0.00000
 BRILLOUIN|   448           0.00195       -0.07812        0.48438        0.00000
 BRILLOUIN|   449           0.00195       -0.04688       -0.48438        0.00000
 BRILLOUIN|   450           0.00195       -0.04688       -0.45312        0.00000
 BRILLOUIN|   451           0.00195       -0.04688       -0.42188        0.00000
 BRILLOUIN|   452           0.00195       -0.04688       -0.39062        0.00000
 BRILLOUIN|   453           0.00195       -0.04688       -0.35938        0.00000
 BRILLOUIN|   454           0.00195       -0.04688       -0.32812        0.00000
 BRILLOUIN|   455           0.00195       -0.04688       -0.29688        0.00000
 BRILLOUIN|   456           0.00195       -0.04688       -0.26562        0.00000
 BRILLOUIN|   457           0.00195       -0.04688       -0.23438        0.00000
 BRILLOUIN|   458           0.00195       -0.04688       -0.20312        0.00000
 BRILLOUIN|   459           0.00195       -0.04688       -0.17188        0.00000
 BRILLOUIN|   460           0.00195       -0.04688       -0.14062        0.00000
 BRILLOUIN|   461           0.00195       -0.04688       -0.10938        0.00000
 BRILLOUIN|   462           0.00195       -0.04688       -0.07812        0.00000
 BRILLOUIN|   463           0.00195       -0.04688       -0.04688        0.00000
 BRILLOUIN|   464           0.00195       -0.04688       -0.01562        0.00000
 BRILLOUIN|   465           0.00195       -0.04688        0.01562        0.00000
 BRILLOUIN|   466           0.00195       -0.04688        0.04688        0.00000
 BRILLOUIN|   467           0.00195       -0.04688        0.07812        0.00000
 BRILLOUIN|   468           0.00195       -0.04688        0.10938        0.00000
 BRILLOUIN|   469           0.00195       -0.04688        0.14062        0.00000
 BRILLOUIN|   470           0.00195       -0.04688        0.17188        0.00000
 BRILLOUIN|   471           0.00195       -0.04688        0.20312        0.00000
 BRILLOUIN|   472           0.00195       -0.04688        0.23438        0.00000
 BRILLOUIN|   473           0.00195       -0.04688        0.26562        0.00000
 BRILLOUIN|   474           0.00195       -0.04688        0.29688        0.00000
 BRILLOUIN|   475           0.00195       -0.04688        0.32812        0.00000
 BRILLOUIN|   476           0.00195       -0.04688        0.35938        0.00000
 BRILLOUIN|   477           0.00195       -0.04688        0.39062        0.00000
 BRILLOUIN|   478           0.00195       -0.04688        0.42188        0.00000
 BRILLOUIN|   479           0.00195       -0.04688        0.45312        0.00000
 BRILLOUIN|   480           0.00195       -0.04688        0.48438        0.00000
 BRILLOUIN|   481           0.00195       -0.01562       -0.48438        0.00000
 BRILLOUIN|   482           0.00195       -0.01562       -0.45312        0.00000
 BRILLOUIN|   483           0.00195       -0.01562       -0.42188        0.00000
 BRILLOUIN|   484           0.00195       -0.01562       -0.39062        0.00000
 BRILLOUIN|   485           0.00195       -0.01562       -0.35938        0.00000
 BRILLOUIN|   486           0.00195       -0.01562       -0.32812        0.00000
 BRILLOUIN|   487           0.00195       -0.01562       -0.29688        0.00000
 BRILLOUIN|   488           0.00195       -0.01562       -0.26562        0.00000
 BRILLOUIN|   489           0.00195       -0.01562       -0.23438        0.00000
 BRILLOUIN|   490           0.00195       -0.01562       -0.20312        0.00000
 BRILLOUIN|   491           0.00195       -0.01562       -0.17188        0.00000
 BRILLOUIN|   492           0.00195       -0.01562       -0.14062        0.00000
 BRILLOUIN|   493           0.00195       -0.01562       -0.10938        0.00000
 BRILLOUIN|   494           0.00195       -0.01562       -0.07812        0.00000
 BRILLOUIN|   495           0.00195       -0.01562       -0.04688        0.00000
 BRILLOUIN|   496           0.00195       -0.01562       -0.01562        0.00000
 BRILLOUIN|   497           0.00195       -0.01562        0.01562        0.00000
 BRILLOUIN|   498           0.00195       -0.01562        0.04688        0.00000
 BRILLOUIN|   499           0.00195       -0.01562        0.07812        0.00000
 BRILLOUIN|   500           0.00195       -0.01562        0.10938        0.00000
 BRILLOUIN|   501           0.00195       -0.01562        0.14062        0.00000
 BRILLOUIN|   502           0.00195       -0.01562        0.17188        0.00000
 BRILLOUIN|   503           0.00195       -0.01562        0.20312        0.00000
 BRILLOUIN|   504           0.00195       -0.01562        0.23438        0.00000
 BRILLOUIN|   505           0.00195       -0.01562        0.26562        0.00000
 BRILLOUIN|   506           0.00195       -0.01562        0.29688        0.00000
 BRILLOUIN|   507           0.00195       -0.01562        0.32812        0.00000
 BRILLOUIN|   508           0.00195       -0.01562        0.35938        0.00000
 BRILLOUIN|   509           0.00195       -0.01562        0.39062        0.00000
 BRILLOUIN|   510           0.00195       -0.01562        0.42188        0.00000
 BRILLOUIN|   511           0.00195       -0.01562        0.45312        0.00000
 BRILLOUIN|   512           0.00195       -0.01562        0.48438        0.00000
 *******************************************************************************

 *******************************************************************************
 *******************************************************************************
 **                                                                           **
 **     #####                         ##              ##                      **
 **    ##   ##            ##          ##              ##                      **
 **   ##     ##                       ##            ######                    **
 **   ##     ##  ##   ##  ##   #####  ##  ##   ####   ##    #####    #####    **
 **   ##     ##  ##   ##  ##  ##      ## ##   ##      ##   ##   ##  ##   ##   **
 **   ##  ## ##  ##   ##  ##  ##      ####     ###    ##   ######   ######    **
 **    ##  ###   ##   ##  ##  ##      ## ##      ##   ##   ##       ##        **
 **     #######   #####   ##   #####  ##  ##  ####    ##    #####   ##        **
 **           ##                                                    ##        **
 **                                                                           **
 **                                                ... make the atoms dance   **
 **                                                                           **
 **            Copyright (C) by CP2K developers group (2000-2024)             **
 **                      J. Chem. Phys. 152, 194103 (2020)                    **
 **                                                                           **
 *******************************************************************************

 DFT| Spin restricted Kohn-Sham (RKS) calculation                            RKS
 DFT| Multiplicity                                                             1
 DFT| Number of spin states                                                    1
 DFT| Charge                                                                   0
 DFT| Self-interaction correction (SIC)                                       NO
 DFT| Cutoffs: density                                              1.000000E-10
 DFT|          gradient                                             1.000000E-10
 DFT|          tau                                                  1.000000E-10
 DFT|          cutoff_smoothing_range                               0.000000E+00
 DFT| XC density smoothing                                                  NONE
 DFT| XC derivatives                                                          PW

 FUNCTIONAL| PBE:
 FUNCTIONAL| J.P.Perdew, K.Burke, M.Ernzerhof, Phys. Rev. Letter, vol. 77, n 18,
 FUNCTIONAL|  pp. 3865-3868, (1996) {spin unpolarized}                          


 QS| Method:                                                                GAPW
 QS| Density plane wave grid type                        NON-SPHERICAL FULLSPACE
 QS| Number of grid levels:                                                    4
 QS| Density cutoff [a.u.]:                                                250.0
 QS| Multi grid cutoff [a.u.]: 1) grid level                               250.0
 QS|                           2) grid level                                83.3
 QS|                           3) grid level                                27.8
 QS|                           4) grid level                                 9.3
 QS| Grid level progression factor:                                          3.0
 QS| Relative density cutoff [a.u.]:                                        50.0
 QS| Interaction thresholds: eps_pgf_orb:                                1.0E-12
 QS|                         eps_filter_matrix:                          0.0E+00
 QS|                         eps_core_charge:                            1.0E-14
 QS|                         eps_rho_gspace:                             1.0E-12
 QS|                         eps_rho_rspace:                             1.0E-12
 QS|                         eps_gvg_rspace:                             1.0E-06
 QS|                         eps_ppl:                                    1.0E-02
 QS|                         eps_ppnl:                                   1.0E-08
 QS| GAPW|      One center basis from orbital basis primitives
 QS| GAPW|                   eps_fit:                                    1.0E-04
 QS| GAPW|                   eps_iso:                                    1.0E-12
 QS| GAPW|                   eps_svd:                                    1.0E-08
 QS| GAPW|                   eps_cpc:                                    1.0E-12
 QS| GAPW|   atom-r-grid: quadrature:                                     GC_LOG
 QS| GAPW|      atom-s-grid:  max l :                                          6
 QS| GAPW|      max_l_rho0 :                                                   2
 QS| GAPW|      At least one kind is NOT PAW, i.e. it has only soft AO 
 QS| GAPW|      The NOT PAW atoms are treated fully GPW


 ATOMIC KIND INFORMATION

  1. Atomic kind: W                                     Number of atoms:       1

     Orbital Basis Set                                        aug-SZV-MOLOPT-GTH

       Number of orbital shell sets:                                           1
       Number of orbital shells:                                               8
       Number of primitive Cartesian functions:                                7
       Number of Cartesian basis functions:                                   31
       Number of spherical basis functions:                                   26
       Norm type:                                                              2

       Normalised Cartesian orbitals:

                        Set   Shell   Orbital            Exponent    Coefficient

                          1       1    2s                0.074663      -0.014288
                                                         0.110000       0.000000
                                                         0.214447      -0.013622
                                                         0.501100      -0.158409
                                                         1.106151      -0.674409
                                                         2.893835       0.343543
                                                         3.103254       0.529378

                          1       2    3s                0.074663       0.097561
                                                         0.110000       0.000000
                                                         0.214447       0.068378
                                                         0.501100      -0.211692
                                                         1.106151      -0.477566
                                                         2.893835       0.569553
                                                         3.103254      -0.097470

                          1       3    4s                0.074663      -0.061328
                                                         0.110000      -0.011338
                                                         0.214447       0.030747
                                                         0.501100       0.554942
                                                         1.106151      -0.141697
                                                         2.893835       0.000000
                                                         3.103254       0.000000

                          1       4    3px               0.074663       0.000342
                                                         0.110000       0.000000
                                                         0.214447      -0.010443
                                                         0.501100      -0.267353
                                                         1.106151      -0.965855
                                                         2.893835      -5.556400
                                                         3.103254       6.695542
                          1       4    3py               0.074663       0.000342
                                                         0.110000       0.000000
                                                         0.214447      -0.010443
                                                         0.501100      -0.267353
                                                         1.106151      -0.965855
                                                         2.893835      -5.556400
                                                         3.103254       6.695542
                          1       4    3pz               0.074663       0.000342
                                                         0.110000       0.000000
                                                         0.214447      -0.010443
                                                         0.501100      -0.267353
                                                         1.106151      -0.965855
                                                         2.893835      -5.556400
                                                         3.103254       6.695542

                          1       5    4px               0.074663      -0.002663
                                                         0.110000      -0.015460
                                                         0.214447      -0.004961
                                                         0.501100       0.676066
                                                         1.106151      -0.037603
                                                         2.893835       0.000000
                                                         3.103254       0.000000
                          1       5    4py               0.074663      -0.002663
                                                         0.110000      -0.015460
                                                         0.214447      -0.004961
                                                         0.501100       0.676066
                                                         1.106151      -0.037603
                                                         2.893835       0.000000
                                                         3.103254       0.000000
                          1       5    4pz               0.074663      -0.002663
                                                         0.110000      -0.015460
                                                         0.214447      -0.004961
                                                         0.501100       0.676066
                                                         1.106151      -0.037603
                                                         2.893835       0.000000
                                                         3.103254       0.000000

                          1       6    4dx2              0.074663       0.002139
                                                         0.110000       0.000000
                                                         0.214447       0.042391
                                                         0.501100       0.198591
                                                         1.106151       0.570194
                                                         2.893835       1.052045
                                                         3.103254      -0.912711
                          1       6    4dxy              0.074663       0.003705
                                                         0.110000       0.000000
                                                         0.214447       0.073424
                                                         0.501100       0.343970
                                                         1.106151       0.987605
                                                         2.893835       1.822195
                                                         3.103254      -1.580861
                          1       6    4dxz              0.074663       0.003705
                                                         0.110000       0.000000
                                                         0.214447       0.073424
                                                         0.501100       0.343970
                                                         1.106151       0.987605
                                                         2.893835       1.822195
                                                         3.103254      -1.580861
                          1       6    4dy2              0.074663       0.002139
                                                         0.110000       0.000000
                                                         0.214447       0.042391
                                                         0.501100       0.198591
                                                         1.106151       0.570194
                                                         2.893835       1.052045
                                                         3.103254      -0.912711
                          1       6    4dyz              0.074663       0.003705
                                                         0.110000       0.000000
                                                         0.214447       0.073424
                                                         0.501100       0.343970
                                                         1.106151       0.987605
                                                         2.893835       1.822195
                                                         3.103254      -1.580861
                          1       6    4dz2              0.074663       0.002139
                                                         0.110000       0.000000
                                                         0.214447       0.042391
                                                         0.501100       0.198591
                                                         1.106151       0.570194
                                                         2.893835       1.052045
                                                         3.103254      -0.912711

                          1       7    5dx2              0.074663       0.001433
                                                         0.110000      -0.000774
                                                         0.214447       0.066754
                                                         0.501100       0.219814
                                                         1.106151      -0.016330
                                                         2.893835       0.000000
                                                         3.103254       0.000000
                          1       7    5dxy              0.074663       0.002481
                                                         0.110000      -0.001341
                                                         0.214447       0.115622
                                                         0.501100       0.380729
                                                         1.106151      -0.028285
                                                         2.893835       0.000000
                                                         3.103254       0.000000
                          1       7    5dxz              0.074663       0.002481
                                                         0.110000      -0.001341
                                                         0.214447       0.115622
                                                         0.501100       0.380729
                                                         1.106151      -0.028285
                                                         2.893835       0.000000
                                                         3.103254       0.000000
                          1       7    5dy2              0.074663       0.001433
                                                         0.110000      -0.000774
                                                         0.214447       0.066754
                                                         0.501100       0.219814
                                                         1.106151      -0.016330
                                                         2.893835       0.000000
                                                         3.103254       0.000000
                          1       7    5dyz              0.074663       0.002481
                                                         0.110000      -0.001341
                                                         0.214447       0.115622
                                                         0.501100       0.380729
                                                         1.106151      -0.028285
                                                         2.893835       0.000000
                                                         3.103254       0.000000
                          1       7    5dz2              0.074663       0.001433
                                                         0.110000      -0.000774
                                                         0.214447       0.066754
                                                         0.501100       0.219814
                                                         1.106151      -0.016330
                                                         2.893835       0.000000
                                                         3.103254       0.000000

                          1       8    5fx3              0.074663      -0.000315
                                                         0.110000       0.000975
                                                         0.214447       0.006074
                                                         0.501100       0.137068
                                                         1.106151       1.012089
                                                         2.893835       0.000000
                                                         3.103254       0.000000
                          1       8    5fx2y             0.074663      -0.000705
                                                         0.110000       0.002180
                                                         0.214447       0.013582
                                                         0.501100       0.306494
                                                         1.106151       2.263100
                                                         2.893835       0.000000
                                                         3.103254       0.000000
                          1       8    5fx2z             0.074663      -0.000705
                                                         0.110000       0.002180
                                                         0.214447       0.013582
                                                         0.501100       0.306494
                                                         1.106151       2.263100
                                                         2.893835       0.000000
                                                         3.103254       0.000000
                          1       8    5fxy2             0.074663      -0.000705
                                                         0.110000       0.002180
                                                         0.214447       0.013582
                                                         0.501100       0.306494
                                                         1.106151       2.263100
                                                         2.893835       0.000000
                                                         3.103254       0.000000
                          1       8    5fxyz             0.074663      -0.001220
                                                         0.110000       0.003775
                                                         0.214447       0.023524
                                                         0.501100       0.530864
                                                         1.106151       3.919803
                                                         2.893835       0.000000
                                                         3.103254       0.000000
                          1       8    5fxz2             0.074663      -0.000705
                                                         0.110000       0.002180
                                                         0.214447       0.013582
                                                         0.501100       0.306494
                                                         1.106151       2.263100
                                                         2.893835       0.000000
                                                         3.103254       0.000000
                          1       8    5fy3              0.074663      -0.000315
                                                         0.110000       0.000975
                                                         0.214447       0.006074
                                                         0.501100       0.137068
                                                         1.106151       1.012089
                                                         2.893835       0.000000
                                                         3.103254       0.000000
                          1       8    5fy2z             0.074663      -0.000705
                                                         0.110000       0.002180
                                                         0.214447       0.013582
                                                         0.501100       0.306494
                                                         1.106151       2.263100
                                                         2.893835       0.000000
                                                         3.103254       0.000000
                          1       8    5fyz2             0.074663      -0.000705
                                                         0.110000       0.002180
                                                         0.214447       0.013582
                                                         0.501100       0.306494
                                                         1.106151       2.263100
                                                         2.893835       0.000000
                                                         3.103254       0.000000
                          1       8    5fz3              0.074663      -0.000315
                                                         0.110000       0.000975
                                                         0.214447       0.006074
                                                         0.501100       0.137068
                                                         1.106151       1.012089
                                                         2.893835       0.000000
                                                         3.103254       0.000000

     RI Auxiliary Basis Set             RI_aug-SZV-MOLOPT-GTH_N_RI_030_s_p_d_f_g

       Number of orbital shell sets:                                           8
       Number of orbital shells:                                               8
       Number of primitive Cartesian functions:                                8
       Number of Cartesian basis functions:                                   40
       Number of spherical basis functions:                                   30
       Norm type:                                                              2

       Normalised Cartesian orbitals:

                        Set   Shell   Orbital            Exponent    Coefficient

                          1       1    1s                0.116900       0.142485

                          2       1    4px               0.444594       0.517481
                          2       1    4py               0.444594       0.517481
                          2       1    4pz               0.444594       0.517481

                          3       1    8gx4              0.805769       0.614489
                          3       1    8gx3y             0.805769       1.625786
                          3       1    8gx3z             0.805769       1.625786
                          3       1    8gx2y2            0.805769       2.098880
                          3       1    8gx2yz            0.805769       3.635367
                          3       1    8gx2z2            0.805769       2.098880
                          3       1    8gxy3             0.805769       1.625786
                          3       1    8gxy2z            0.805769       3.635367
                          3       1    8gxyz2            0.805769       3.635367
                          3       1    8gxz3             0.805769       1.625786
                          3       1    8gy4              0.805769       0.614489
                          3       1    8gy3z             0.805769       1.625786
                          3       1    8gy2z2            0.805769       2.098880
                          3       1    8gyz3             0.805769       1.625786
                          3       1    8gz4              0.805769       0.614489

                          4       1    5px               1.397958       2.166744
                          4       1    5py               1.397958       2.166744
                          4       1    5pz               1.397958       2.166744

                          5       1    2s                1.523223       0.977198

                          6       1    7fx3              1.749917       5.184942
                          6       1    7fx2y             1.749917      11.593882
                          6       1    7fx2z             1.749917      11.593882
                          6       1    7fxy2             1.749917      11.593882
                          6       1    7fxyz             1.749917      20.081193
                          6       1    7fxz2             1.749917      11.593882
                          6       1    7fy3              1.749917       5.184942
                          6       1    7fy2z             1.749917      11.593882
                          6       1    7fyz2             1.749917      11.593882
                          6       1    7fz3              1.749917       5.184942

                          7       1    6dx2              1.837297       4.772251
                          7       1    6dxy              1.837297       8.265780
                          7       1    6dxz              1.837297       8.265780
                          7       1    6dy2              1.837297       4.772251
                          7       1    6dyz              1.837297       8.265780
                          7       1    6dz2              1.837297       4.772251

[...]

 C. Hartwigsen, S. Goedecker, J. Hutter.
 Phys. Rev. B 58, 3641-3662 (1998).
 Relativistic separable dual-space Gaussian pseudopotentials from H to Rn.
 https://doi.org/10.1103/PhysRevB.58.3641

 S. Goedecker, M. Teter, J. Hutter.
 Phys. Rev. B 54, 1703-1710 (1996).
 Separable dual-space Gaussian pseudopotentials.
 https://doi.org/10.1103/PhysRevB.54.1703

 J. P. Perdew, K. Burke, M. Ernzerhof.
 Phys. Rev. Lett. 77, 3865-3868 (1996).
 Generalized gradient approximation made simple.
 https://doi.org/10.1103/PhysRevLett.77.3865


 -------------------------------------------------------------------------------
 -                                                                             -
 -                                T I M I N G                                  -
 -                                                                             -
 -------------------------------------------------------------------------------
 SUBROUTINE                       CALLS  ASD         SELF TIME        TOTAL TIME
                                MAXIMUM       AVERAGE  MAXIMUM  AVERAGE  MAXIMUM
 CP2K                                 1  1.0     0.02     0.03 17268.30 17268.30
 qs_energies                          1  2.0     0.00     0.00 17266.85 17266.90
 qs_energies_properties               1  3.0     0.00     0.00 16895.34 16895.40
 post_scf_bandstructure               1  4.0     0.00     0.01 16895.34 16895.40
 gw                                   1  5.0     0.00     0.00 16807.12 16807.13
 gw_calc_small_cell_full_kp           1  6.0     0.00     0.01 16634.96 16634.98
 dbt_total                      *******  9.8    91.97   100.38 11265.96 12060.32
 dbt_contract                   ******* 10.6   137.93   147.35  9138.35  9805.20
 dbt_tas_multiply               7224526 12.9    12.92    14.94  8457.06  9092.62
 dbt_tas_total                  7224526 13.9   734.41   798.32  8448.87  9084.22
 compute_Sigma_c                      1  7.0     0.01     0.01  7736.26  7736.29
 compute_chi                          1  7.0     0.16     0.19  6015.66  6015.71
 contract_to_Sigma                  610  8.0   142.15   159.97  4561.42  5097.67
 dbt_tas_estimate_result_nze    3612263 13.4   523.63   561.19  3297.46  3591.98
 contract_M_occ_vir_to_chi          300  8.0   245.17   278.45  2674.83  3170.23
 contract_to_Sigma_3c_x_G       7358430  9.0    16.47    18.77  2763.93  3136.99
 dbt_tas_dbm                    7224526 14.9    12.28    13.54  2449.75  2719.93
 dbm_multiply                   7224526 16.9  2422.56  2690.89  2422.56  2690.89
 G_times_3c                       34980  8.0    26.95    27.83  2495.17  2672.60
 compute_W_real_space                 1  7.0     2.88     2.93  2549.28  2549.30
 contract_W                         310  8.0    22.98    23.57  2305.68  2513.51
 dbt_copy                       ******* 11.1    92.44   101.50  2193.07  2398.34
 mp_sync                        ******* 11.7  1426.63  2258.27  1426.63  2258.27
 compute_Minv_and_Vsqrt               1  8.0     0.03     0.03  2251.07  2251.14
 build_2c_coulomb_matrix_kp_sma       2  9.0     4.66     5.54  2245.95  2245.97
 contract_to_Sigma_contract       35563  9.0    32.92    35.17  1627.33  1807.20
 build_2c_coulomb_matrix_kp_sma  655360 10.0  1690.39  1739.41  1690.39  1739.41
 dbt_reshape                    ******* 11.9  1053.24  1205.64  1443.31  1648.26
 reshape_mm_small               7224526 14.9   675.07   716.77  1427.47  1522.04
 get_t_3c_int                   *******  9.6    88.94   108.37  1174.89  1300.42
 dbt_tas_mm_2                   2471130 16.0     5.42     6.17  1053.32  1189.44
 dbt_tas_mm_3T                  2992740 16.2     3.47     3.88   833.14   965.75
 dbt_tas_reshape                8121624 15.5    86.89    97.23   752.26   817.75
 dbt_tas_create_split           ******* 16.0    24.80    26.93   709.96   776.63
 dbt_tas_create_split_rows_or_c ******* 17.0    95.68   102.54   685.16   752.52
 reshape_mm_compatible          7224526 14.9   129.88   142.33   678.16   726.87
 convert_to_new_pgrid           ******* 14.9   179.77   196.36   625.51   675.68
 dbt_tas_mm_1N                  1884708 15.5     2.22     2.54   548.66   614.02
 dbt_tas_replicate              7224526 14.9   276.92   296.82   532.41   570.61
 dbt_tas_distribution_new       ******* 15.8   262.14   287.84   498.67   550.33
 dbt_tas_reserve_blocks_index   ******* 15.6    75.91    82.72   427.76   501.88
 dbm_reserve_blocks             ******* 16.5   393.92   483.97   393.92   483.97
 dbm_copy                       ******* 15.9   445.74   482.16   445.74   482.16
 change_split                   9966080 15.4    43.89    48.62   442.94   480.46
 dbcsr_complete_redistribute     436665  9.8    13.84    20.29   423.07   455.99
 G_occ_vir                          121  8.0     0.52     0.64   431.25   433.59
 mp_cart_create                 ******* 16.7   335.24   375.44   366.14   412.60
 copy_dbcsr_to_fm                238218  8.2     2.40     2.66   392.76   395.35
 scf_env_do_scf                       1  3.0     0.00     0.00   371.09   371.09
 scf_env_do_scf_inner_loop           51  4.0     0.01     0.01   371.09   371.09
 dbt_tas_copy                   6852904 12.6   191.24   221.87   297.41   351.82
 dbt_remap                       483151 11.0    68.90    76.34   317.90   351.24
 qs_scf_new_mos_kp                   51  5.0     0.00     0.00   347.60   347.67
 do_general_diag_kp                  51  6.0     0.54     0.61   347.60   347.66
 mp_sum_dm                       655410 10.0   336.52   340.37   336.52   340.37
 dbt_tas_create_new             ******* 15.3   297.60   319.93   297.60   319.93
 fm_to_local_tensor              146072  9.0     2.72     2.92   308.98   309.02
 dbt_copy_nocomm                2319690 11.0   186.18   224.84   251.17   304.46
 dbt_tas_reshape_buffer_fill    8121624 16.5   275.83   296.08   275.83   296.08
 dbt_tas_reshape_buffer_obtain  8121624 16.5   174.72   191.95   254.20   285.22
 dbt_reserve_blocks_index_array ******* 13.0    16.28    18.86   249.90   283.97
 dbt_reserve_blocks_index       ******* 13.9    24.17    27.08   238.77   271.19
 dbcsr_desymmetrize_deep         355554  8.5     5.56     6.80   260.63   264.83
 dbt_tas_reserve_blocks_templat ******* 14.1    62.43    71.54   199.45   243.15
 copy_fm_to_dbcsr                198447  9.5     0.85     0.94   208.55   240.61
 dbt_permute_index              ******* 12.2   188.88   208.17   213.84   235.87
 dbm_filter                     ******* 14.9   204.44   227.57   204.44   227.57
 compute_Sigma_x                      1  7.0     0.00     0.00   221.63   221.65
 mp_comm_dup                    ******* 18.6   177.97   196.62   191.65   213.31
 mp_alltoall_d11v               2376657 10.7   204.96   206.57   204.96   206.57
 dbt_communicate_buffer         ******* 12.9   177.10   198.38   177.10   198.38
 mp_alltoall_i22                 792219 10.2   157.78   190.54   157.78   190.54
 mp_alltoall_i11v               1665549 10.5   190.25   190.41   190.25   190.41
 local_dbt_to_global_fm              91  8.0     0.30     0.32   181.76   181.76
 mp_comm_split_direct           ******* 18.0   153.24   168.55   163.11   181.33
 add_R                          *******  9.3   119.72   127.71   161.78   177.10
 create_and_init_bs_env_for_gw        1  6.0     0.00     0.00   172.16   172.18
 fm_add_ikp_to_rs                123904  9.0    77.78    79.21   115.83   164.31
 dbt_align_index                ******* 11.4    23.43    25.70   140.89   151.29
 add_ikp_to_rs                  *******  9.9    99.67   149.40    99.67   149.40
 add_V_L                         327680 10.0     6.07   148.10     6.07   148.10
 compute_3c_integrals                 1  7.0     0.12     0.13   146.60   146.60
 mp_comm_free                   ******* 15.7   135.25   145.65   135.25   145.65
 build_3c_integrals                   1  8.0   133.38   138.45   138.14   143.20
 dbt_tas_merge                  2471130 15.0    94.49   105.70   122.89   139.66
 dbm_add                        7224526 14.9   119.81   137.66   119.81   137.66
 global_matrix_to_local_matrix   146072 10.0     2.27     4.67    98.08   132.96
 cp_cfm_gemm                     271042 10.9   110.91   122.72   110.91   122.72
 parallel_gemm_cfm               267820  8.9     0.25     0.28   110.81   122.61
 parallel_gemm_cfm_gemm          267820  9.9     0.26     0.30   110.56   122.37
 add_rs_to_ikp                  *******  9.8   107.80   117.07   107.80   117.07
 compute_QP_energies                  1  7.0     0.06     0.08   112.14   112.20
 trafo_to_k_and_nn                65514  8.0     0.47     0.53   111.92   111.98
 mp_waitall_1                   1242253 11.4    76.04   106.79    76.04   106.79
 dbt_tas_mp_comm                4060812 13.2    13.41    14.69    93.00   106.09
 send_data                       146072 11.0     0.17     0.21    68.24    96.91
 communicate_buffer              146072 12.0     2.00    18.17    68.07    96.72
 hybrid_alltoall_any             355554  9.5     1.59     1.78    93.14    93.85
 reshape_mm_template             966302 15.5    49.22    54.46    84.42    93.03
 trafo_rs_to_ikp                  14346  8.1     9.90    10.21    87.52    90.41
 is_cell_in_index_to_cell       ******* -8.1    71.11    83.27    71.11    83.27
 dbt_reserve_blocks_template    2319690 12.0    10.02    12.44    64.99    83.17
 fm_trafo_rs_to_ikp               65514  9.0    43.19    44.35    73.38    83.02
 dbt_destroy                    ******* 11.2    70.90    74.28    75.37    78.94
 dbt_distribution_new_expert    1258456 12.2    13.84    15.06    69.14    78.43
 mp_cart_get                    ******* ****    67.01    75.64    67.01    75.64
 add_ikp_to_all_rs                13151  8.0     8.89     9.31    70.54    72.64
 dbm_scale                      ******* 13.0    52.58    70.22    52.58    70.22
 kpoint_density_transform            51  7.0     0.16     0.21    66.85    66.90
 mp_comm_size                   ******* -8.0    53.87    66.14    53.87    66.14
 dbt_tas_reshape_get_coord      8121624 16.5    59.20    63.77    59.20    63.77
 fm_MWM_R_t_to_local_tensor_W_R      30  8.0     0.04     0.05    62.98    62.98
 dbt_tas_communicate_buffer     ******* 17.2    56.86    62.92    56.86    62.92
 dbt_tas_reshape_communicate_bu 8121624 16.5    10.16    10.99    56.77    62.52
 fm_to_local_array                  934  8.1    10.36    11.27    61.19    61.44
 mult_W_with_Minv                    30  8.0     0.21     0.23    59.83    59.88
 get_V_tr_R                          34  9.0     0.12     0.14    58.94    59.07
 dbt_create_3c_R1_R2                 62  8.0     5.60     5.96    49.81    53.61
 dbt_create_template            3552110  9.0    49.30    53.30    49.30    53.30
 mp_sum_dm3                        1046  9.0    50.75    52.86    50.75    52.86
 cp_cfm_heevd                      5112  7.6    52.27    52.42    52.27    52.42
 mp_comm_rank                   ******* -8.0    42.15    51.95    42.15    51.95
 dbcsr_finalize                 1768253 11.1     7.97    10.74    36.92    48.07
 dbt_create_new                  629228 11.7     9.28    10.41    43.13    48.07
 mp_cart_sub                     476515 10.2    44.51    44.63    44.51    44.63
 local_dbt_to_global_mat          87451  9.0     0.82     0.96    30.34    42.09
 dos_pdos_ldos                        1  5.0     0.01     0.01    40.81    40.86
 rskp_transform                   58668  7.1     0.74    40.74     0.74    40.74
 SOC_ev                            2148  6.0     0.03     0.03    38.50    38.53
 get_data                        146072 11.0     4.70    36.55     5.09    37.03
 local_matrix_to_global_matrix    87451 10.0     0.34     0.37    23.64    35.46
 destroy_t_2d                        62  8.0     6.90     7.62    33.89    35.25
 mp_alltoall_i                  ******* 14.7    31.35    34.40    31.35    34.40
 mp_isend_dv                    ******* 11.9     1.14    34.38     1.14    34.38
 rsmat_to_kp                       6444  7.2     0.10     0.11    33.71    34.14
 dbcsr_filter_anytype            654248 11.0     3.72     4.10    21.36    30.41
 create_and_init_bs_env               1  5.0     0.00     0.00    29.86    29.86
 compute_cfm_mo_coeff_kp_and_ei       1  6.0     0.01     0.01    29.86    29.86
 dbt_create_matrix               146072 10.0     1.75     2.01    26.13    28.97
 power                            27242  8.0    24.80    25.30    24.80    25.30
 cp_fm_start_copy_general        156672  7.3     1.51     2.70    24.60    24.95
 mp_sum_l                       ******* 15.1    22.22    24.90    22.22    24.90
 dbcsr_merge_all                 663336 11.9    13.10    18.48    18.36    23.84
 dbt_pgrid_create_expert        1258459 13.2     2.71     3.15    16.06    18.82
 cp_cfm_geeig_canon                1074  7.0     0.01     0.01    18.47    18.49
 dbcsr_create_new               1416287 10.1    10.95    11.79    16.78    18.15
 transform_dmat                   26112  8.0     0.31    18.10     0.31    18.10
 soc                                  1  5.0     0.00     0.00    17.55    17.55
 H_KS_spinor_kp                       1  6.0     0.02     0.02    17.49    17.51
 set_blocks                       87451 11.0     1.43     5.69     7.38    16.26
 mp_max_i                       ******* 11.6    13.05    15.89    13.05    15.89
 mp_allgather_i                  313344  8.3    15.06    15.82    15.06    15.82
 dbt_tas_replicate_communicate_ 4869618 15.9     6.04     6.70    13.98    15.44
 dbt_tas_reshape_alltoall       8121624 16.5     8.43     9.30    13.61    15.31
 mp_cart_rank                   ******* 15.9    13.55    15.01    13.55    15.01
 dbt_nd_mp_comm                  629223 11.7     1.98     2.26    11.68    13.31
 qs_ks_build_kohn_sham_matrix        54  7.1     0.02     0.02    12.74    12.80
 qs_ks_update_qs_env                 51  5.0     0.00     0.00    12.33    12.39
 rebuild_ks_matrix                   51  6.0     0.00     0.00    12.05    12.11
 transfer_pw2rs                     271 10.6     0.00     0.00    11.78    12.01
 transfer_pw2rs_250                 109 11.0     0.19     0.24    11.59    11.84
 sum_up_and_integrate                54  8.1     0.00     0.00     0.73    11.82
 integrate_v_rspace                  54  9.1     0.00     0.03     0.73    11.82
 integrate_vhg0_rspace               54  8.1     0.00     0.00    11.33    11.56
 grid_integrate_task_list            54 10.1     0.17    11.24     0.17    11.24
 mp_isend_im2                   ******* 12.9     0.49    10.82     0.49    10.82
 mp_sum_i                       6503340 15.9     9.75    10.52     9.75    10.52
 transfer_rs2pw                     264  8.4     0.00     0.00     9.94    10.11
 qs_rho_update_rho_low               52  5.0     0.00     0.00     9.99     9.99
 calculate_rho_elec                  52  6.0     0.00     0.01     9.99     9.99
 transfer_rs2pw_250                 108 10.0     0.23     0.27     9.74     9.94
 mp_sendrecv_dv                   25080 10.4     9.66     9.84     9.66     9.84
 density_rs2pw                       52  7.0     0.00     0.00     9.67     9.83
 mp_bcast_i                     ******* 18.0     8.32     9.76     8.32     9.76
 dbcsr_work_create              1018890 10.5     5.57     6.65     8.11     9.71
 dbcsr_iterator_start           3746048 11.0     7.78     8.06     8.83     9.40
 grid_collocate_task_list            52  7.0     0.31     9.31     0.31     9.31
 copy_fm_to_dbcsr_bc             198447 10.5     2.33     2.51     8.59     9.24
 mp_dims_create                 ******* 14.4     7.43     8.92     7.43     8.92
 dbt_tas_replicate_alltoall     4869618 15.9     4.79     5.44     7.27     8.18
 send_sizes_1                    146072 11.0     0.17     0.19     7.12     7.87
 dbt_distribution_destroy       1258456 12.2     5.63     6.46     6.88     7.85
 comm_data                        87451 11.0     0.35     2.16     6.38     7.83
 dbcsr_set                      1446740 10.6     1.33     1.44     7.11     7.82
 dbcsr_work_destroy_all         1018890 11.4     4.71     5.60     6.62     7.79
 dbt_buffer_get_index           ******* 16.8     6.33     7.65     6.33     7.65
 reserve_blocks                  146072 11.0     0.72     0.81     6.42     7.17
 setup_cells_3c                       1  7.0     0.26     0.27     7.15     7.15
 mp_waitall_2                    174902 12.0     5.79     7.11     5.79     7.11
 dbt_copy_matrix_to_tensor       146072 10.0     2.37     2.58     6.48     6.95
 build_3c_integral_block          21276  8.0     4.81     5.36     6.49     6.89
 trafo_V_xc_R_to_kp                   1  7.0     0.01     0.01     6.75     6.76
 get_Minv_Vtr_Minv_R                  1  8.0     0.01     0.01     6.46     6.49
 dbcsr_zero                     1446740 11.6     5.78     6.49     5.78     6.49
 send_sizes_2                    146072 11.0     0.17     0.19     6.05     6.45
 dbt_tas_merge_communicate_buff 2471130 16.0     3.24     3.74     5.56     6.28
 dbt_tas_merge_alltoall         2471130 16.0     3.26     3.78     5.43     6.18
 mp_bcast_iv                     626778  8.3     5.39     5.99     5.39     5.99
 dbcsr_make_index_exist         1416287 11.1     5.36     5.88     5.36     5.88
 dbcsr_data_release             ******* 11.9     5.00     5.78     5.00     5.78
 dbcsr_iterator_stop            3746048 11.0     4.47     4.67     5.38     5.61
 dbcsr_data_new                 ******* 11.4     4.33     5.02     4.33     5.02
 heuristic_RI_regularization          1  7.0     0.00     0.00     4.89     4.89
 mp_sum_dv                        72116  8.9     2.81     4.86     2.81     4.86
 setup_parallelization_Delta_R        1  7.0     0.00     0.00     4.77     4.77
 compute_n_tensor_ops_Delta_R         1  8.0     1.52     2.21     4.77     4.77
 build_2c_integrals                  34 10.0     0.11     2.08     0.28     4.47
 comm_size                        87451 11.0     0.12     0.15     4.17     4.43
 dbcsr_reserve_blocks            567403 12.2     2.30     3.71     2.73     4.35
 dbcsr_destroy                  1312528  9.8     2.20     2.31     3.66     3.99
 get_coord                        87451 11.0     0.89     0.94     2.99     3.92
 fill_buffer                      87451 11.0     2.14     3.62     2.37     3.85
 alloc_block_3c                       1  9.0     0.32     0.33     3.67     3.74
 dbt_reserve_blocks_matrix_to_t  146072 11.0     1.06     1.12     3.25     3.53
 copy_dbcsr_to_fm_bc             238218  9.2     1.58     1.71     3.21     3.39
 tree_to_linear_d                499884 12.8     3.07     3.29     3.07     3.29
 add_to_DOS_PDOS                   4296  6.5     3.11     3.17     3.11     3.17
 quick_finalize                  355554 10.5     0.86     2.22     1.45     3.04
 dbt_copy_tensor_to_matrix        87451 10.0     0.73     0.77     2.71     2.88
 mp_bcast_im                     313344  8.3     2.20     2.86     2.20     2.86
 mp_sum_iv                         2172  9.0     1.65     2.80     1.65     2.80
 dbcsr_copy                      156134 10.4     0.90     1.04     1.69     2.52
 dbcsr_reserve_all_blocks        285898 11.6     0.41     0.49     1.30     2.50
 fill_mat_local                  146072 11.0     1.85     1.93     2.21     2.29
 cp_dbcsr_alloc_block_from_nbl    47982 10.0     0.16     1.50     0.22     1.89
 -------------------------------------------------------------------------------

 The number of warnings for this run is : 2
 
 -------------------------------------------------------------------------------
  **** **** ******  **  PROGRAM ENDED AT                 2024-12-11 16:19:43.728
 ***** ** ***  *** **   PROGRAM RAN ON                              f01r01c04s11
 **    ****   ******    PROGRAM RAN BY                                   di38fab
 ***** **    ** ** **   PROGRAM PROCESS ID                                682955
  **** **  *******  **  PROGRAM STOPPED IN /hppfs/scratch/04/di38fab/04_TMD/3_WS
                                           2__
