SIRIUS 7.5.2, git hash: https://api.github.com/repos/electronic-structure/SIRIUS/git/ref/tags/v7.5.2
 DBCSR| CPU Multiplication driver                                           XSMM (U)
 DBCSR| Multrec recursion limit                                              512 (U)
 DBCSR| Multiplication stack size                                           1000 (D)
 DBCSR| Maximum elements for images                                    UNLIMITED (U)
 DBCSR| Multiplicative factor virtual images                                   1 (U)
 DBCSR| Use multiplication densification                                       T (D)
 DBCSR| Multiplication size stacks                                             3 (U)
 DBCSR| Use memory pool for CPU allocation                                     F (U)
 DBCSR| Number of 3D layers                                               SINGLE (U)
 DBCSR| Use MPI memory allocation                                              F (U)
 DBCSR| Use RMA algorithm                                                      F (U)
 DBCSR| Use Communication thread                                               T (U)
 DBCSR| Communication thread load                                             30 (D)
 DBCSR| MPI: My process id                                                     0
 DBCSR| MPI: Number of processes                                              48
 DBCSR| OMP: Current number of threads                                        16
 DBCSR| OMP: Max number of threads                                            16
 DBCSR| Split modifier for TAS multiplication algorithm                  1.0E+00 (U)


  **** **** ******  **  PROGRAM STARTED AT               2025-03-20 23:26:12.668
 ***** ** ***  *** **   PROGRAM STARTED ON                             n2lcn0152
 **    ****   ******    PROGRAM STARTED BY                              metdyn02
 ***** **    ** ** **   PROGRAM PROCESS ID                                 82263
  **** **  *******  **  PROGRAM STARTED IN /scratch/hpc-prf-metdyn/metdyn02_Remi
                                           /05_TMD_new/paperbenchmarks/regulariz
                                           ation/1e-3/3

 CP2K| version string:                 CP2K version 2025.1 (Development Version)
 CP2K| source code revision number:                                  git:f0c7327
 CP2K| cp2kflags: omp libint fftw3 libxc libgrpp elpa parallel scalapack mpi_f08
 CP2K|             cosma xsmm plumed2 spglib sirius libvori libbqb libvdwxc hdf5
 CP2K| is freely available from                            https://www.cp2k.org/
 CP2K| Program compiled at                          Wed Mar 12 18:25:30 CET 2025
 CP2K| Program compiled on                                              n2login1
 CP2K| Program compiled for                                                local
 CP2K| Data directory path    /opt/software/pc2/EB-SW/software/CP2K/2024.1-foss-
 CP2K| Input file name                                                    GW.inp

 GLOBAL| Force Environment number                                              1
 GLOBAL| Basis set file name            /scratch/hpc-prf-metdyn/metdyn02_Remi/05
 GLOBAL| Potential file name            /pc2/groups/hpc-prf-metdyn/metdyn02_Remi
 GLOBAL| MM Potential file name                                     MM_POTENTIAL
 GLOBAL| Coordinate file name                                      __STD_INPUT__
 GLOBAL| Method name                                                        CP2K
 GLOBAL| Project name                                                       WSe2
 GLOBAL| Run type                                                         ENERGY
 GLOBAL| FFT library                                                       FFTW3
 GLOBAL| Diagonalization library                                            ELPA
 GLOBAL| DGEMM library                                                      BLAS
 GLOBAL| Minimum number of eigenvectors for ELPA usage                        16
 GLOBAL| Orthonormality check for eigenvectors                          DISABLED
 GLOBAL| Matrix multiplication library                                     COSMA
 GLOBAL| All-to-all communication in single precision                          F
 GLOBAL| FFTs using library dependent lengths                                  F
 GLOBAL| Grid backend                                                       AUTO
 GLOBAL| Global print level                                               MEDIUM
 GLOBAL| MPI I/O enabled                                                       T
 GLOBAL| Total number of message passing processes                            48
 GLOBAL| Number of threads for this process                                   16
 GLOBAL| This output is from process                                           0
 GLOBAL| OpenMP stack size per thread (OMP_STACKSIZE)                    default
 GLOBAL| CPU model name                          AMD EPYC 7763 64-Core Processor
 GLOBAL| CPUID                                                              1002

 MEMORY| system memory details [Kb]
 MEMORY|                        rank 0           min           max       average
 MEMORY| MemTotal           1056622248    1056622240    1056626772    1056623000
 MEMORY| MemFree            1046094272    1032419244    1046227452    1042109780
 MEMORY| Buffers                120136         22672        196216        103332
 MEMORY| Cached                4404376       4383352      14939632       7483235
 MEMORY| Slab                  1055372       1039224       2746116       1607761
 MEMORY| SReclaimable           215992        213088        773988        356010
 MEMORY| MemLikelyFree      1050834776    1048329080    1050946292    1050052357


 *** Fundamental physical constants (SI units) ***

 *** Literature: B. J. Mohr and B. N. Taylor,
 ***             CODATA recommended values of the fundamental physical
 ***             constants: 2006, Web Version 5.1
 ***             http://physics.nist.gov/constants

 Speed of light in vacuum [m/s]                             2.99792458000000E+08
 Magnetic constant or permeability of vacuum [N/A**2]       1.25663706143592E-06
 Electric constant or permittivity of vacuum [F/m]          8.85418781762039E-12
 Planck constant (h) [J*s]                                  6.62606896000000E-34
 Planck constant (h-bar) [J*s]                              1.05457162825177E-34
 Elementary charge [C]                                      1.60217648700000E-19
 Electron mass [kg]                                         9.10938215000000E-31
 Electron g factor [ ]                                     -2.00231930436220E+00
 Proton mass [kg]                                           1.67262163700000E-27
 Fine-structure constant                                    7.29735253760000E-03
 Rydberg constant [1/m]                                     1.09737315685270E+07
 Avogadro constant [1/mol]                                  6.02214179000000E+23
 Boltzmann constant [J/K]                                   1.38065040000000E-23
 Atomic mass unit [kg]                                      1.66053878200000E-27
 Bohr radius [m]                                            5.29177208590000E-11

 *** Conversion factors ***

 [u] -> [a.u.]                                              1.82288848426455E+03
 [Angstrom] -> [Bohr] = [a.u.]                              1.88972613288564E+00
 [a.u.] = [Bohr] -> [Angstrom]                              5.29177208590000E-01
 [a.u.] -> [s]                                              2.41888432650478E-17
 [a.u.] -> [fs]                                             2.41888432650478E-02
 [a.u.] -> [J]                                              4.35974393937059E-18
 [a.u.] -> [N]                                              8.23872205491840E-08
 [a.u.] -> [K]                                              3.15774647902944E+05
 [a.u.] -> [kJ/mol]                                         2.62549961709828E+03
 [a.u.] -> [kcal/mol]                                       6.27509468713739E+02
 [a.u.] -> [Pa]                                             2.94210107994716E+13
 [a.u.] -> [bar]                                            2.94210107994716E+08
 [a.u.] -> [atm]                                            2.90362800883016E+08
 [a.u.] -> [eV]                                             2.72113838565563E+01
 [a.u.] -> [Hz]                                             6.57968392072181E+15
 [a.u.] -> [1/cm] (wave numbers)                            2.19474631370540E+05
 [a.u./Bohr**2] -> [1/cm]                                   5.14048714338585E+03
 

 CELL_TOP| Volume [angstrom^3]:                                       143.098933
 CELL_TOP| Vector a [angstrom     3.319     0.000     0.000   |a| =     3.319000
 CELL_TOP| Vector b [angstrom    -1.659     2.874     0.000   |b| =     3.319000
 CELL_TOP| Vector c [angstrom     0.000     0.000    15.000   |c| =    15.000000
 CELL_TOP| Angle (b,c), alpha [degree]:                                90.000000
 CELL_TOP| Angle (a,c), beta  [degree]:                                90.000000
 CELL_TOP| Angle (a,b), gamma [degree]:                               120.000000
 CELL_TOP| Numerically orthorhombic:                                          NO
 CELL_TOP| Periodicity                                                        XY

 GENERATE|  Preliminary Number of Bonds generated:                             0
 GENERATE|  Achieved consistency in connectivity generation.

 CELL| Volume [angstrom^3]:                                           143.098933
 CELL| Vector a [angstrom]:       3.319     0.000     0.000   |a| =     3.319000
 CELL| Vector b [angstrom]:      -1.659     2.874     0.000   |b| =     3.319000
 CELL| Vector c [angstrom]:       0.000     0.000    15.000   |c| =    15.000000
 CELL| Angle (b,c), alpha [degree]:                                    90.000000
 CELL| Angle (a,c), beta  [degree]:                                    90.000000
 CELL| Angle (a,b), gamma [degree]:                                   120.000000
 CELL| Numerically orthorhombic:                                              NO
 CELL| Periodicity                                                            XY

 CELL_REF| Volume [angstrom^3]:                                       143.098933
 CELL_REF| Vector a [angstrom     3.319     0.000     0.000   |a| =     3.319000
 CELL_REF| Vector b [angstrom    -1.659     2.874     0.000   |b| =     3.319000
 CELL_REF| Vector c [angstrom     0.000     0.000    15.000   |c| =    15.000000
 CELL_REF| Angle (b,c), alpha [degree]:                                90.000000
 CELL_REF| Angle (a,c), beta  [degree]:                                90.000000
 CELL_REF| Angle (a,b), gamma [degree]:                               120.000000
 CELL_REF| Numerically orthorhombic:                                          NO
 CELL_REF| Periodicity                                                        XY

 *******************************************************************************
                                    Kpoints
 *******************************************************************************
 BRILLOUIN| K-point scheme                                        Monkhorst-Pack
 BRILLOUIN| K-Point grid                                            32   32    1
 BRILLOUIN| Accuracy in Symmetry determination                      0.100000E-05
 BRILLOUIN| K-Point point group symmetrization                               OFF
 BRILLOUIN| Wavefunction type                                            COMPLEX
 BRILLOUIN| List of Kpoints [2 Pi/Bohr]                                      512
 BRILLOUIN| Number           Weight            X              Y              Z
 BRILLOUIN|     1           0.00195       -0.48438       -0.48438        0.00000
 BRILLOUIN|     2           0.00195       -0.48438       -0.45312        0.00000
 BRILLOUIN|     3           0.00195       -0.48438       -0.42188        0.00000
 BRILLOUIN|     4           0.00195       -0.48438       -0.39062        0.00000
 BRILLOUIN|     5           0.00195       -0.48438       -0.35938        0.00000
 BRILLOUIN|     6           0.00195       -0.48438       -0.32812        0.00000
 BRILLOUIN|     7           0.00195       -0.48438       -0.29688        0.00000
 BRILLOUIN|     8           0.00195       -0.48438       -0.26562        0.00000
 BRILLOUIN|     9           0.00195       -0.48438       -0.23438        0.00000
 BRILLOUIN|    10           0.00195       -0.48438       -0.20312        0.00000
 BRILLOUIN|    11           0.00195       -0.48438       -0.17188        0.00000
 BRILLOUIN|    12           0.00195       -0.48438       -0.14062        0.00000
 BRILLOUIN|    13           0.00195       -0.48438       -0.10938        0.00000
 BRILLOUIN|    14           0.00195       -0.48438       -0.07812        0.00000
 BRILLOUIN|    15           0.00195       -0.48438       -0.04688        0.00000
 BRILLOUIN|    16           0.00195       -0.48438       -0.01562        0.00000
 BRILLOUIN|    17           0.00195       -0.48438        0.01562        0.00000
 BRILLOUIN|    18           0.00195       -0.48438        0.04688        0.00000
 BRILLOUIN|    19           0.00195       -0.48438        0.07812        0.00000
 BRILLOUIN|    20           0.00195       -0.48438        0.10938        0.00000
 BRILLOUIN|    21           0.00195       -0.48438        0.14062        0.00000
 BRILLOUIN|    22           0.00195       -0.48438        0.17188        0.00000
 BRILLOUIN|    23           0.00195       -0.48438        0.20312        0.00000
 BRILLOUIN|    24           0.00195       -0.48438        0.23438        0.00000
 BRILLOUIN|    25           0.00195       -0.48438        0.26562        0.00000
 BRILLOUIN|    26           0.00195       -0.48438        0.29688        0.00000
 BRILLOUIN|    27           0.00195       -0.48438        0.32812        0.00000
 BRILLOUIN|    28           0.00195       -0.48438        0.35938        0.00000
 BRILLOUIN|    29           0.00195       -0.48438        0.39062        0.00000
 BRILLOUIN|    30           0.00195       -0.48438        0.42188        0.00000
 BRILLOUIN|    31           0.00195       -0.48438        0.45312        0.00000
 BRILLOUIN|    32           0.00195       -0.48438        0.48438        0.00000
 BRILLOUIN|    33           0.00195       -0.45312       -0.48438        0.00000
 BRILLOUIN|    34           0.00195       -0.45312       -0.45312        0.00000
 BRILLOUIN|    35           0.00195       -0.45312       -0.42188        0.00000
 BRILLOUIN|    36           0.00195       -0.45312       -0.39062        0.00000
 BRILLOUIN|    37           0.00195       -0.45312       -0.35938        0.00000
 BRILLOUIN|    38           0.00195       -0.45312       -0.32812        0.00000
 BRILLOUIN|    39           0.00195       -0.45312       -0.29688        0.00000
 BRILLOUIN|    40           0.00195       -0.45312       -0.26562        0.00000
 BRILLOUIN|    41           0.00195       -0.45312       -0.23438        0.00000
 BRILLOUIN|    42           0.00195       -0.45312       -0.20312        0.00000
 BRILLOUIN|    43           0.00195       -0.45312       -0.17188        0.00000
 BRILLOUIN|    44           0.00195       -0.45312       -0.14062        0.00000
 BRILLOUIN|    45           0.00195       -0.45312       -0.10938        0.00000
 BRILLOUIN|    46           0.00195       -0.45312       -0.07812        0.00000
 BRILLOUIN|    47           0.00195       -0.45312       -0.04688        0.00000
 BRILLOUIN|    48           0.00195       -0.45312       -0.01562        0.00000
 BRILLOUIN|    49           0.00195       -0.45312        0.01562        0.00000
 BRILLOUIN|    50           0.00195       -0.45312        0.04688        0.00000
 BRILLOUIN|    51           0.00195       -0.45312        0.07812        0.00000
 BRILLOUIN|    52           0.00195       -0.45312        0.10938        0.00000
 BRILLOUIN|    53           0.00195       -0.45312        0.14062        0.00000
 BRILLOUIN|    54           0.00195       -0.45312        0.17188        0.00000
 BRILLOUIN|    55           0.00195       -0.45312        0.20312        0.00000
 BRILLOUIN|    56           0.00195       -0.45312        0.23438        0.00000
 BRILLOUIN|    57           0.00195       -0.45312        0.26562        0.00000
 BRILLOUIN|    58           0.00195       -0.45312        0.29688        0.00000
 BRILLOUIN|    59           0.00195       -0.45312        0.32812        0.00000
 BRILLOUIN|    60           0.00195       -0.45312        0.35938        0.00000
 BRILLOUIN|    61           0.00195       -0.45312        0.39062        0.00000
 BRILLOUIN|    62           0.00195       -0.45312        0.42188        0.00000
 BRILLOUIN|    63           0.00195       -0.45312        0.45312        0.00000
 BRILLOUIN|    64           0.00195       -0.45312        0.48438        0.00000
 BRILLOUIN|    65           0.00195       -0.42188       -0.48438        0.00000
 BRILLOUIN|    66           0.00195       -0.42188       -0.45312        0.00000
 BRILLOUIN|    67           0.00195       -0.42188       -0.42188        0.00000
 BRILLOUIN|    68           0.00195       -0.42188       -0.39062        0.00000
 BRILLOUIN|    69           0.00195       -0.42188       -0.35938        0.00000
 BRILLOUIN|    70           0.00195       -0.42188       -0.32812        0.00000
 BRILLOUIN|    71           0.00195       -0.42188       -0.29688        0.00000
 BRILLOUIN|    72           0.00195       -0.42188       -0.26562        0.00000
 BRILLOUIN|    73           0.00195       -0.42188       -0.23438        0.00000
 BRILLOUIN|    74           0.00195       -0.42188       -0.20312        0.00000
 BRILLOUIN|    75           0.00195       -0.42188       -0.17188        0.00000
 BRILLOUIN|    76           0.00195       -0.42188       -0.14062        0.00000
 BRILLOUIN|    77           0.00195       -0.42188       -0.10938        0.00000
 BRILLOUIN|    78           0.00195       -0.42188       -0.07812        0.00000
 BRILLOUIN|    79           0.00195       -0.42188       -0.04688        0.00000
 BRILLOUIN|    80           0.00195       -0.42188       -0.01562        0.00000
 BRILLOUIN|    81           0.00195       -0.42188        0.01562        0.00000
 BRILLOUIN|    82           0.00195       -0.42188        0.04688        0.00000
 BRILLOUIN|    83           0.00195       -0.42188        0.07812        0.00000
 BRILLOUIN|    84           0.00195       -0.42188        0.10938        0.00000
 BRILLOUIN|    85           0.00195       -0.42188        0.14062        0.00000
 BRILLOUIN|    86           0.00195       -0.42188        0.17188        0.00000
 BRILLOUIN|    87           0.00195       -0.42188        0.20312        0.00000
 BRILLOUIN|    88           0.00195       -0.42188        0.23438        0.00000
 BRILLOUIN|    89           0.00195       -0.42188        0.26562        0.00000
 BRILLOUIN|    90           0.00195       -0.42188        0.29688        0.00000
 BRILLOUIN|    91           0.00195       -0.42188        0.32812        0.00000
 BRILLOUIN|    92           0.00195       -0.42188        0.35938        0.00000
 BRILLOUIN|    93           0.00195       -0.42188        0.39062        0.00000
 BRILLOUIN|    94           0.00195       -0.42188        0.42188        0.00000
 BRILLOUIN|    95           0.00195       -0.42188        0.45312        0.00000
 BRILLOUIN|    96           0.00195       -0.42188        0.48438        0.00000
 BRILLOUIN|    97           0.00195       -0.39062       -0.48438        0.00000
 BRILLOUIN|    98           0.00195       -0.39062       -0.45312        0.00000
 BRILLOUIN|    99           0.00195       -0.39062       -0.42188        0.00000
 BRILLOUIN|   100           0.00195       -0.39062       -0.39062        0.00000
 BRILLOUIN|   101           0.00195       -0.39062       -0.35938        0.00000
 BRILLOUIN|   102           0.00195       -0.39062       -0.32812        0.00000
 BRILLOUIN|   103           0.00195       -0.39062       -0.29688        0.00000
 BRILLOUIN|   104           0.00195       -0.39062       -0.26562        0.00000
 BRILLOUIN|   105           0.00195       -0.39062       -0.23438        0.00000
 BRILLOUIN|   106           0.00195       -0.39062       -0.20312        0.00000
 BRILLOUIN|   107           0.00195       -0.39062       -0.17188        0.00000
 BRILLOUIN|   108           0.00195       -0.39062       -0.14062        0.00000
 BRILLOUIN|   109           0.00195       -0.39062       -0.10938        0.00000
 BRILLOUIN|   110           0.00195       -0.39062       -0.07812        0.00000
 BRILLOUIN|   111           0.00195       -0.39062       -0.04688        0.00000
 BRILLOUIN|   112           0.00195       -0.39062       -0.01562        0.00000
 BRILLOUIN|   113           0.00195       -0.39062        0.01562        0.00000
 BRILLOUIN|   114           0.00195       -0.39062        0.04688        0.00000
 BRILLOUIN|   115           0.00195       -0.39062        0.07812        0.00000
 BRILLOUIN|   116           0.00195       -0.39062        0.10938        0.00000
 BRILLOUIN|   117           0.00195       -0.39062        0.14062        0.00000
 BRILLOUIN|   118           0.00195       -0.39062        0.17188        0.00000
 BRILLOUIN|   119           0.00195       -0.39062        0.20312        0.00000
 BRILLOUIN|   120           0.00195       -0.39062        0.23438        0.00000
 BRILLOUIN|   121           0.00195       -0.39062        0.26562        0.00000
 BRILLOUIN|   122           0.00195       -0.39062        0.29688        0.00000
 BRILLOUIN|   123           0.00195       -0.39062        0.32812        0.00000
 BRILLOUIN|   124           0.00195       -0.39062        0.35938        0.00000
 BRILLOUIN|   125           0.00195       -0.39062        0.39062        0.00000
 BRILLOUIN|   126           0.00195       -0.39062        0.42188        0.00000
 BRILLOUIN|   127           0.00195       -0.39062        0.45312        0.00000
 BRILLOUIN|   128           0.00195       -0.39062        0.48438        0.00000
 BRILLOUIN|   129           0.00195       -0.35938       -0.48438        0.00000
 BRILLOUIN|   130           0.00195       -0.35938       -0.45312        0.00000
 BRILLOUIN|   131           0.00195       -0.35938       -0.42188        0.00000
 BRILLOUIN|   132           0.00195       -0.35938       -0.39062        0.00000
 BRILLOUIN|   133           0.00195       -0.35938       -0.35938        0.00000
 BRILLOUIN|   134           0.00195       -0.35938       -0.32812        0.00000
 BRILLOUIN|   135           0.00195       -0.35938       -0.29688        0.00000
 BRILLOUIN|   136           0.00195       -0.35938       -0.26562        0.00000
 BRILLOUIN|   137           0.00195       -0.35938       -0.23438        0.00000
 BRILLOUIN|   138           0.00195       -0.35938       -0.20312        0.00000
 BRILLOUIN|   139           0.00195       -0.35938       -0.17188        0.00000
 BRILLOUIN|   140           0.00195       -0.35938       -0.14062        0.00000
 BRILLOUIN|   141           0.00195       -0.35938       -0.10938        0.00000
 BRILLOUIN|   142           0.00195       -0.35938       -0.07812        0.00000
 BRILLOUIN|   143           0.00195       -0.35938       -0.04688        0.00000
 BRILLOUIN|   144           0.00195       -0.35938       -0.01562        0.00000
 BRILLOUIN|   145           0.00195       -0.35938        0.01562        0.00000
 BRILLOUIN|   146           0.00195       -0.35938        0.04688        0.00000
 BRILLOUIN|   147           0.00195       -0.35938        0.07812        0.00000
 BRILLOUIN|   148           0.00195       -0.35938        0.10938        0.00000
 BRILLOUIN|   149           0.00195       -0.35938        0.14062        0.00000
 BRILLOUIN|   150           0.00195       -0.35938        0.17188        0.00000
 BRILLOUIN|   151           0.00195       -0.35938        0.20312        0.00000
 BRILLOUIN|   152           0.00195       -0.35938        0.23438        0.00000
 BRILLOUIN|   153           0.00195       -0.35938        0.26562        0.00000
 BRILLOUIN|   154           0.00195       -0.35938        0.29688        0.00000
 BRILLOUIN|   155           0.00195       -0.35938        0.32812        0.00000
 BRILLOUIN|   156           0.00195       -0.35938        0.35938        0.00000
 BRILLOUIN|   157           0.00195       -0.35938        0.39062        0.00000
 BRILLOUIN|   158           0.00195       -0.35938        0.42188        0.00000
 BRILLOUIN|   159           0.00195       -0.35938        0.45312        0.00000
 BRILLOUIN|   160           0.00195       -0.35938        0.48438        0.00000
 BRILLOUIN|   161           0.00195       -0.32812       -0.48438        0.00000
 BRILLOUIN|   162           0.00195       -0.32812       -0.45312        0.00000
 BRILLOUIN|   163           0.00195       -0.32812       -0.42188        0.00000
 BRILLOUIN|   164           0.00195       -0.32812       -0.39062        0.00000
 BRILLOUIN|   165           0.00195       -0.32812       -0.35938        0.00000
 BRILLOUIN|   166           0.00195       -0.32812       -0.32812        0.00000
 BRILLOUIN|   167           0.00195       -0.32812       -0.29688        0.00000
 BRILLOUIN|   168           0.00195       -0.32812       -0.26562        0.00000
 BRILLOUIN|   169           0.00195       -0.32812       -0.23438        0.00000
 BRILLOUIN|   170           0.00195       -0.32812       -0.20312        0.00000
 BRILLOUIN|   171           0.00195       -0.32812       -0.17188        0.00000
 BRILLOUIN|   172           0.00195       -0.32812       -0.14062        0.00000
 BRILLOUIN|   173           0.00195       -0.32812       -0.10938        0.00000
 BRILLOUIN|   174           0.00195       -0.32812       -0.07812        0.00000
 BRILLOUIN|   175           0.00195       -0.32812       -0.04688        0.00000
 BRILLOUIN|   176           0.00195       -0.32812       -0.01562        0.00000
 BRILLOUIN|   177           0.00195       -0.32812        0.01562        0.00000
 BRILLOUIN|   178           0.00195       -0.32812        0.04688        0.00000
 BRILLOUIN|   179           0.00195       -0.32812        0.07812        0.00000
 BRILLOUIN|   180           0.00195       -0.32812        0.10938        0.00000
 BRILLOUIN|   181           0.00195       -0.32812        0.14062        0.00000
 BRILLOUIN|   182           0.00195       -0.32812        0.17188        0.00000
 BRILLOUIN|   183           0.00195       -0.32812        0.20312        0.00000
 BRILLOUIN|   184           0.00195       -0.32812        0.23438        0.00000
 BRILLOUIN|   185           0.00195       -0.32812        0.26562        0.00000
 BRILLOUIN|   186           0.00195       -0.32812        0.29688        0.00000
 BRILLOUIN|   187           0.00195       -0.32812        0.32812        0.00000
 BRILLOUIN|   188           0.00195       -0.32812        0.35938        0.00000
 BRILLOUIN|   189           0.00195       -0.32812        0.39062        0.00000
 BRILLOUIN|   190           0.00195       -0.32812        0.42188        0.00000
 BRILLOUIN|   191           0.00195       -0.32812        0.45312        0.00000
 BRILLOUIN|   192           0.00195       -0.32812        0.48438        0.00000
 BRILLOUIN|   193           0.00195       -0.29688       -0.48438        0.00000
 BRILLOUIN|   194           0.00195       -0.29688       -0.45312        0.00000
 BRILLOUIN|   195           0.00195       -0.29688       -0.42188        0.00000
 BRILLOUIN|   196           0.00195       -0.29688       -0.39062        0.00000
 BRILLOUIN|   197           0.00195       -0.29688       -0.35938        0.00000
 BRILLOUIN|   198           0.00195       -0.29688       -0.32812        0.00000
 BRILLOUIN|   199           0.00195       -0.29688       -0.29688        0.00000
 BRILLOUIN|   200           0.00195       -0.29688       -0.26562        0.00000
 BRILLOUIN|   201           0.00195       -0.29688       -0.23438        0.00000
 BRILLOUIN|   202           0.00195       -0.29688       -0.20312        0.00000
 BRILLOUIN|   203           0.00195       -0.29688       -0.17188        0.00000
 BRILLOUIN|   204           0.00195       -0.29688       -0.14062        0.00000
 BRILLOUIN|   205           0.00195       -0.29688       -0.10938        0.00000
 BRILLOUIN|   206           0.00195       -0.29688       -0.07812        0.00000
 BRILLOUIN|   207           0.00195       -0.29688       -0.04688        0.00000
 BRILLOUIN|   208           0.00195       -0.29688       -0.01562        0.00000
 BRILLOUIN|   209           0.00195       -0.29688        0.01562        0.00000
 BRILLOUIN|   210           0.00195       -0.29688        0.04688        0.00000
 BRILLOUIN|   211           0.00195       -0.29688        0.07812        0.00000
 BRILLOUIN|   212           0.00195       -0.29688        0.10938        0.00000
 BRILLOUIN|   213           0.00195       -0.29688        0.14062        0.00000
 BRILLOUIN|   214           0.00195       -0.29688        0.17188        0.00000
 BRILLOUIN|   215           0.00195       -0.29688        0.20312        0.00000
 BRILLOUIN|   216           0.00195       -0.29688        0.23438        0.00000
 BRILLOUIN|   217           0.00195       -0.29688        0.26562        0.00000
 BRILLOUIN|   218           0.00195       -0.29688        0.29688        0.00000
 BRILLOUIN|   219           0.00195       -0.29688        0.32812        0.00000
 BRILLOUIN|   220           0.00195       -0.29688        0.35938        0.00000
 BRILLOUIN|   221           0.00195       -0.29688        0.39062        0.00000
 BRILLOUIN|   222           0.00195       -0.29688        0.42188        0.00000
 BRILLOUIN|   223           0.00195       -0.29688        0.45312        0.00000
 BRILLOUIN|   224           0.00195       -0.29688        0.48438        0.00000
 BRILLOUIN|   225           0.00195       -0.26562       -0.48438        0.00000
 BRILLOUIN|   226           0.00195       -0.26562       -0.45312        0.00000
 BRILLOUIN|   227           0.00195       -0.26562       -0.42188        0.00000
 BRILLOUIN|   228           0.00195       -0.26562       -0.39062        0.00000
 BRILLOUIN|   229           0.00195       -0.26562       -0.35938        0.00000
 BRILLOUIN|   230           0.00195       -0.26562       -0.32812        0.00000
 BRILLOUIN|   231           0.00195       -0.26562       -0.29688        0.00000
 BRILLOUIN|   232           0.00195       -0.26562       -0.26562        0.00000
 BRILLOUIN|   233           0.00195       -0.26562       -0.23438        0.00000
 BRILLOUIN|   234           0.00195       -0.26562       -0.20312        0.00000
 BRILLOUIN|   235           0.00195       -0.26562       -0.17188        0.00000
 BRILLOUIN|   236           0.00195       -0.26562       -0.14062        0.00000
 BRILLOUIN|   237           0.00195       -0.26562       -0.10938        0.00000
 BRILLOUIN|   238           0.00195       -0.26562       -0.07812        0.00000
 BRILLOUIN|   239           0.00195       -0.26562       -0.04688        0.00000
 BRILLOUIN|   240           0.00195       -0.26562       -0.01562        0.00000
 BRILLOUIN|   241           0.00195       -0.26562        0.01562        0.00000
 BRILLOUIN|   242           0.00195       -0.26562        0.04688        0.00000
 BRILLOUIN|   243           0.00195       -0.26562        0.07812        0.00000
 BRILLOUIN|   244           0.00195       -0.26562        0.10938        0.00000
 BRILLOUIN|   245           0.00195       -0.26562        0.14062        0.00000
 BRILLOUIN|   246           0.00195       -0.26562        0.17188        0.00000
 BRILLOUIN|   247           0.00195       -0.26562        0.20312        0.00000
 BRILLOUIN|   248           0.00195       -0.26562        0.23438        0.00000
 BRILLOUIN|   249           0.00195       -0.26562        0.26562        0.00000
 BRILLOUIN|   250           0.00195       -0.26562        0.29688        0.00000
 BRILLOUIN|   251           0.00195       -0.26562        0.32812        0.00000
 BRILLOUIN|   252           0.00195       -0.26562        0.35938        0.00000
 BRILLOUIN|   253           0.00195       -0.26562        0.39062        0.00000
 BRILLOUIN|   254           0.00195       -0.26562        0.42188        0.00000
 BRILLOUIN|   255           0.00195       -0.26562        0.45312        0.00000
 BRILLOUIN|   256           0.00195       -0.26562        0.48438        0.00000
 BRILLOUIN|   257           0.00195       -0.23438       -0.48438        0.00000
 BRILLOUIN|   258           0.00195       -0.23438       -0.45312        0.00000
 BRILLOUIN|   259           0.00195       -0.23438       -0.42188        0.00000
 BRILLOUIN|   260           0.00195       -0.23438       -0.39062        0.00000
 BRILLOUIN|   261           0.00195       -0.23438       -0.35938        0.00000
 BRILLOUIN|   262           0.00195       -0.23438       -0.32812        0.00000
 BRILLOUIN|   263           0.00195       -0.23438       -0.29688        0.00000
 BRILLOUIN|   264           0.00195       -0.23438       -0.26562        0.00000
 BRILLOUIN|   265           0.00195       -0.23438       -0.23438        0.00000
 BRILLOUIN|   266           0.00195       -0.23438       -0.20312        0.00000
 BRILLOUIN|   267           0.00195       -0.23438       -0.17188        0.00000
 BRILLOUIN|   268           0.00195       -0.23438       -0.14062        0.00000
 BRILLOUIN|   269           0.00195       -0.23438       -0.10938        0.00000
 BRILLOUIN|   270           0.00195       -0.23438       -0.07812        0.00000
 BRILLOUIN|   271           0.00195       -0.23438       -0.04688        0.00000
 BRILLOUIN|   272           0.00195       -0.23438       -0.01562        0.00000
 BRILLOUIN|   273           0.00195       -0.23438        0.01562        0.00000
 BRILLOUIN|   274           0.00195       -0.23438        0.04688        0.00000
 BRILLOUIN|   275           0.00195       -0.23438        0.07812        0.00000
 BRILLOUIN|   276           0.00195       -0.23438        0.10938        0.00000
 BRILLOUIN|   277           0.00195       -0.23438        0.14062        0.00000
 BRILLOUIN|   278           0.00195       -0.23438        0.17188        0.00000
 BRILLOUIN|   279           0.00195       -0.23438        0.20312        0.00000
 BRILLOUIN|   280           0.00195       -0.23438        0.23438        0.00000
 BRILLOUIN|   281           0.00195       -0.23438        0.26562        0.00000
 BRILLOUIN|   282           0.00195       -0.23438        0.29688        0.00000
 BRILLOUIN|   283           0.00195       -0.23438        0.32812        0.00000
 BRILLOUIN|   284           0.00195       -0.23438        0.35938        0.00000
 BRILLOUIN|   285           0.00195       -0.23438        0.39062        0.00000
 BRILLOUIN|   286           0.00195       -0.23438        0.42188        0.00000
 BRILLOUIN|   287           0.00195       -0.23438        0.45312        0.00000
 BRILLOUIN|   288           0.00195       -0.23438        0.48438        0.00000
 BRILLOUIN|   289           0.00195       -0.20312       -0.48438        0.00000
 BRILLOUIN|   290           0.00195       -0.20312       -0.45312        0.00000
 BRILLOUIN|   291           0.00195       -0.20312       -0.42188        0.00000
 BRILLOUIN|   292           0.00195       -0.20312       -0.39062        0.00000
 BRILLOUIN|   293           0.00195       -0.20312       -0.35938        0.00000
 BRILLOUIN|   294           0.00195       -0.20312       -0.32812        0.00000
 BRILLOUIN|   295           0.00195       -0.20312       -0.29688        0.00000
 BRILLOUIN|   296           0.00195       -0.20312       -0.26562        0.00000
 BRILLOUIN|   297           0.00195       -0.20312       -0.23438        0.00000
 BRILLOUIN|   298           0.00195       -0.20312       -0.20312        0.00000
 BRILLOUIN|   299           0.00195       -0.20312       -0.17188        0.00000
 BRILLOUIN|   300           0.00195       -0.20312       -0.14062        0.00000
 BRILLOUIN|   301           0.00195       -0.20312       -0.10938        0.00000
 BRILLOUIN|   302           0.00195       -0.20312       -0.07812        0.00000
 BRILLOUIN|   303           0.00195       -0.20312       -0.04688        0.00000
 BRILLOUIN|   304           0.00195       -0.20312       -0.01562        0.00000
 BRILLOUIN|   305           0.00195       -0.20312        0.01562        0.00000
 BRILLOUIN|   306           0.00195       -0.20312        0.04688        0.00000
 BRILLOUIN|   307           0.00195       -0.20312        0.07812        0.00000
 BRILLOUIN|   308           0.00195       -0.20312        0.10938        0.00000
 BRILLOUIN|   309           0.00195       -0.20312        0.14062        0.00000
 BRILLOUIN|   310           0.00195       -0.20312        0.17188        0.00000
 BRILLOUIN|   311           0.00195       -0.20312        0.20312        0.00000
 BRILLOUIN|   312           0.00195       -0.20312        0.23438        0.00000
 BRILLOUIN|   313           0.00195       -0.20312        0.26562        0.00000
 BRILLOUIN|   314           0.00195       -0.20312        0.29688        0.00000
 BRILLOUIN|   315           0.00195       -0.20312        0.32812        0.00000
 BRILLOUIN|   316           0.00195       -0.20312        0.35938        0.00000
 BRILLOUIN|   317           0.00195       -0.20312        0.39062        0.00000
 BRILLOUIN|   318           0.00195       -0.20312        0.42188        0.00000
 BRILLOUIN|   319           0.00195       -0.20312        0.45312        0.00000
 BRILLOUIN|   320           0.00195       -0.20312        0.48438        0.00000
 BRILLOUIN|   321           0.00195       -0.17188       -0.48438        0.00000
 BRILLOUIN|   322           0.00195       -0.17188       -0.45312        0.00000
 BRILLOUIN|   323           0.00195       -0.17188       -0.42188        0.00000
 BRILLOUIN|   324           0.00195       -0.17188       -0.39062        0.00000
 BRILLOUIN|   325           0.00195       -0.17188       -0.35938        0.00000
 BRILLOUIN|   326           0.00195       -0.17188       -0.32812        0.00000
 BRILLOUIN|   327           0.00195       -0.17188       -0.29688        0.00000
 BRILLOUIN|   328           0.00195       -0.17188       -0.26562        0.00000
 BRILLOUIN|   329           0.00195       -0.17188       -0.23438        0.00000
 BRILLOUIN|   330           0.00195       -0.17188       -0.20312        0.00000
 BRILLOUIN|   331           0.00195       -0.17188       -0.17188        0.00000
 BRILLOUIN|   332           0.00195       -0.17188       -0.14062        0.00000
 BRILLOUIN|   333           0.00195       -0.17188       -0.10938        0.00000
 BRILLOUIN|   334           0.00195       -0.17188       -0.07812        0.00000
 BRILLOUIN|   335           0.00195       -0.17188       -0.04688        0.00000
 BRILLOUIN|   336           0.00195       -0.17188       -0.01562        0.00000
 BRILLOUIN|   337           0.00195       -0.17188        0.01562        0.00000
 BRILLOUIN|   338           0.00195       -0.17188        0.04688        0.00000
 BRILLOUIN|   339           0.00195       -0.17188        0.07812        0.00000
 BRILLOUIN|   340           0.00195       -0.17188        0.10938        0.00000
 BRILLOUIN|   341           0.00195       -0.17188        0.14062        0.00000
 BRILLOUIN|   342           0.00195       -0.17188        0.17188        0.00000
 BRILLOUIN|   343           0.00195       -0.17188        0.20312        0.00000
 BRILLOUIN|   344           0.00195       -0.17188        0.23438        0.00000
 BRILLOUIN|   345           0.00195       -0.17188        0.26562        0.00000
 BRILLOUIN|   346           0.00195       -0.17188        0.29688        0.00000
 BRILLOUIN|   347           0.00195       -0.17188        0.32812        0.00000
 BRILLOUIN|   348           0.00195       -0.17188        0.35938        0.00000
 BRILLOUIN|   349           0.00195       -0.17188        0.39062        0.00000
 BRILLOUIN|   350           0.00195       -0.17188        0.42188        0.00000
 BRILLOUIN|   351           0.00195       -0.17188        0.45312        0.00000
 BRILLOUIN|   352           0.00195       -0.17188        0.48438        0.00000
 BRILLOUIN|   353           0.00195       -0.14062       -0.48438        0.00000
 BRILLOUIN|   354           0.00195       -0.14062       -0.45312        0.00000
 BRILLOUIN|   355           0.00195       -0.14062       -0.42188        0.00000
 BRILLOUIN|   356           0.00195       -0.14062       -0.39062        0.00000
 BRILLOUIN|   357           0.00195       -0.14062       -0.35938        0.00000
 BRILLOUIN|   358           0.00195       -0.14062       -0.32812        0.00000
 BRILLOUIN|   359           0.00195       -0.14062       -0.29688        0.00000
 BRILLOUIN|   360           0.00195       -0.14062       -0.26562        0.00000
 BRILLOUIN|   361           0.00195       -0.14062       -0.23438        0.00000
 BRILLOUIN|   362           0.00195       -0.14062       -0.20312        0.00000
 BRILLOUIN|   363           0.00195       -0.14062       -0.17188        0.00000
 BRILLOUIN|   364           0.00195       -0.14062       -0.14062        0.00000
 BRILLOUIN|   365           0.00195       -0.14062       -0.10938        0.00000
 BRILLOUIN|   366           0.00195       -0.14062       -0.07812        0.00000
 BRILLOUIN|   367           0.00195       -0.14062       -0.04688        0.00000
 BRILLOUIN|   368           0.00195       -0.14062       -0.01562        0.00000
 BRILLOUIN|   369           0.00195       -0.14062        0.01562        0.00000
 BRILLOUIN|   370           0.00195       -0.14062        0.04688        0.00000
 BRILLOUIN|   371           0.00195       -0.14062        0.07812        0.00000
 BRILLOUIN|   372           0.00195       -0.14062        0.10938        0.00000
 BRILLOUIN|   373           0.00195       -0.14062        0.14062        0.00000
 BRILLOUIN|   374           0.00195       -0.14062        0.17188        0.00000
 BRILLOUIN|   375           0.00195       -0.14062        0.20312        0.00000
 BRILLOUIN|   376           0.00195       -0.14062        0.23438        0.00000
 BRILLOUIN|   377           0.00195       -0.14062        0.26562        0.00000
 BRILLOUIN|   378           0.00195       -0.14062        0.29688        0.00000
 BRILLOUIN|   379           0.00195       -0.14062        0.32812        0.00000
 BRILLOUIN|   380           0.00195       -0.14062        0.35938        0.00000
 BRILLOUIN|   381           0.00195       -0.14062        0.39062        0.00000
 BRILLOUIN|   382           0.00195       -0.14062        0.42188        0.00000
 BRILLOUIN|   383           0.00195       -0.14062        0.45312        0.00000
 BRILLOUIN|   384           0.00195       -0.14062        0.48438        0.00000
 BRILLOUIN|   385           0.00195       -0.10938       -0.48438        0.00000
 BRILLOUIN|   386           0.00195       -0.10938       -0.45312        0.00000
 BRILLOUIN|   387           0.00195       -0.10938       -0.42188        0.00000
 BRILLOUIN|   388           0.00195       -0.10938       -0.39062        0.00000
 BRILLOUIN|   389           0.00195       -0.10938       -0.35938        0.00000
 BRILLOUIN|   390           0.00195       -0.10938       -0.32812        0.00000
 BRILLOUIN|   391           0.00195       -0.10938       -0.29688        0.00000
 BRILLOUIN|   392           0.00195       -0.10938       -0.26562        0.00000
 BRILLOUIN|   393           0.00195       -0.10938       -0.23438        0.00000
 BRILLOUIN|   394           0.00195       -0.10938       -0.20312        0.00000
 BRILLOUIN|   395           0.00195       -0.10938       -0.17188        0.00000
 BRILLOUIN|   396           0.00195       -0.10938       -0.14062        0.00000
 BRILLOUIN|   397           0.00195       -0.10938       -0.10938        0.00000
 BRILLOUIN|   398           0.00195       -0.10938       -0.07812        0.00000
 BRILLOUIN|   399           0.00195       -0.10938       -0.04688        0.00000
 BRILLOUIN|   400           0.00195       -0.10938       -0.01562        0.00000
 BRILLOUIN|   401           0.00195       -0.10938        0.01562        0.00000
 BRILLOUIN|   402           0.00195       -0.10938        0.04688        0.00000
 BRILLOUIN|   403           0.00195       -0.10938        0.07812        0.00000
 BRILLOUIN|   404           0.00195       -0.10938        0.10938        0.00000
 BRILLOUIN|   405           0.00195       -0.10938        0.14062        0.00000
 BRILLOUIN|   406           0.00195       -0.10938        0.17188        0.00000
 BRILLOUIN|   407           0.00195       -0.10938        0.20312        0.00000
 BRILLOUIN|   408           0.00195       -0.10938        0.23438        0.00000
 BRILLOUIN|   409           0.00195       -0.10938        0.26562        0.00000
 BRILLOUIN|   410           0.00195       -0.10938        0.29688        0.00000
 BRILLOUIN|   411           0.00195       -0.10938        0.32812        0.00000
 BRILLOUIN|   412           0.00195       -0.10938        0.35938        0.00000
 BRILLOUIN|   413           0.00195       -0.10938        0.39062        0.00000
 BRILLOUIN|   414           0.00195       -0.10938        0.42188        0.00000
 BRILLOUIN|   415           0.00195       -0.10938        0.45312        0.00000
 BRILLOUIN|   416           0.00195       -0.10938        0.48438        0.00000
 BRILLOUIN|   417           0.00195       -0.07812       -0.48438        0.00000
 BRILLOUIN|   418           0.00195       -0.07812       -0.45312        0.00000
 BRILLOUIN|   419           0.00195       -0.07812       -0.42188        0.00000
 BRILLOUIN|   420           0.00195       -0.07812       -0.39062        0.00000
 BRILLOUIN|   421           0.00195       -0.07812       -0.35938        0.00000
 BRILLOUIN|   422           0.00195       -0.07812       -0.32812        0.00000
 BRILLOUIN|   423           0.00195       -0.07812       -0.29688        0.00000
 BRILLOUIN|   424           0.00195       -0.07812       -0.26562        0.00000
 BRILLOUIN|   425           0.00195       -0.07812       -0.23438        0.00000
 BRILLOUIN|   426           0.00195       -0.07812       -0.20312        0.00000
 BRILLOUIN|   427           0.00195       -0.07812       -0.17188        0.00000
 BRILLOUIN|   428           0.00195       -0.07812       -0.14062        0.00000
 BRILLOUIN|   429           0.00195       -0.07812       -0.10938        0.00000
 BRILLOUIN|   430           0.00195       -0.07812       -0.07812        0.00000
 BRILLOUIN|   431           0.00195       -0.07812       -0.04688        0.00000
 BRILLOUIN|   432           0.00195       -0.07812       -0.01562        0.00000
 BRILLOUIN|   433           0.00195       -0.07812        0.01562        0.00000
 BRILLOUIN|   434           0.00195       -0.07812        0.04688        0.00000
 BRILLOUIN|   435           0.00195       -0.07812        0.07812        0.00000
 BRILLOUIN|   436           0.00195       -0.07812        0.10938        0.00000
 BRILLOUIN|   437           0.00195       -0.07812        0.14062        0.00000
 BRILLOUIN|   438           0.00195       -0.07812        0.17188        0.00000
 BRILLOUIN|   439           0.00195       -0.07812        0.20312        0.00000
 BRILLOUIN|   440           0.00195       -0.07812        0.23438        0.00000
 BRILLOUIN|   441           0.00195       -0.07812        0.26562        0.00000
 BRILLOUIN|   442           0.00195       -0.07812        0.29688        0.00000
 BRILLOUIN|   443           0.00195       -0.07812        0.32812        0.00000
 BRILLOUIN|   444           0.00195       -0.07812        0.35938        0.00000
 BRILLOUIN|   445           0.00195       -0.07812        0.39062        0.00000
 BRILLOUIN|   446           0.00195       -0.07812        0.42188        0.00000
 BRILLOUIN|   447           0.00195       -0.07812        0.45312        0.00000
 BRILLOUIN|   448           0.00195       -0.07812        0.48438        0.00000
 BRILLOUIN|   449           0.00195       -0.04688       -0.48438        0.00000
 BRILLOUIN|   450           0.00195       -0.04688       -0.45312        0.00000
 BRILLOUIN|   451           0.00195       -0.04688       -0.42188        0.00000
 BRILLOUIN|   452           0.00195       -0.04688       -0.39062        0.00000
 BRILLOUIN|   453           0.00195       -0.04688       -0.35938        0.00000
 BRILLOUIN|   454           0.00195       -0.04688       -0.32812        0.00000
 BRILLOUIN|   455           0.00195       -0.04688       -0.29688        0.00000
 BRILLOUIN|   456           0.00195       -0.04688       -0.26562        0.00000
 BRILLOUIN|   457           0.00195       -0.04688       -0.23438        0.00000
 BRILLOUIN|   458           0.00195       -0.04688       -0.20312        0.00000
 BRILLOUIN|   459           0.00195       -0.04688       -0.17188        0.00000
 BRILLOUIN|   460           0.00195       -0.04688       -0.14062        0.00000
 BRILLOUIN|   461           0.00195       -0.04688       -0.10938        0.00000
 BRILLOUIN|   462           0.00195       -0.04688       -0.07812        0.00000
 BRILLOUIN|   463           0.00195       -0.04688       -0.04688        0.00000
 BRILLOUIN|   464           0.00195       -0.04688       -0.01562        0.00000
 BRILLOUIN|   465           0.00195       -0.04688        0.01562        0.00000
 BRILLOUIN|   466           0.00195       -0.04688        0.04688        0.00000
 BRILLOUIN|   467           0.00195       -0.04688        0.07812        0.00000
 BRILLOUIN|   468           0.00195       -0.04688        0.10938        0.00000
 BRILLOUIN|   469           0.00195       -0.04688        0.14062        0.00000
 BRILLOUIN|   470           0.00195       -0.04688        0.17188        0.00000
 BRILLOUIN|   471           0.00195       -0.04688        0.20312        0.00000
 BRILLOUIN|   472           0.00195       -0.04688        0.23438        0.00000
 BRILLOUIN|   473           0.00195       -0.04688        0.26562        0.00000
 BRILLOUIN|   474           0.00195       -0.04688        0.29688        0.00000
 BRILLOUIN|   475           0.00195       -0.04688        0.32812        0.00000
 BRILLOUIN|   476           0.00195       -0.04688        0.35938        0.00000
 BRILLOUIN|   477           0.00195       -0.04688        0.39062        0.00000
 BRILLOUIN|   478           0.00195       -0.04688        0.42188        0.00000
 BRILLOUIN|   479           0.00195       -0.04688        0.45312        0.00000
 BRILLOUIN|   480           0.00195       -0.04688        0.48438        0.00000
 BRILLOUIN|   481           0.00195       -0.01562       -0.48438        0.00000
 BRILLOUIN|   482           0.00195       -0.01562       -0.45312        0.00000
 BRILLOUIN|   483           0.00195       -0.01562       -0.42188        0.00000
 BRILLOUIN|   484           0.00195       -0.01562       -0.39062        0.00000
 BRILLOUIN|   485           0.00195       -0.01562       -0.35938        0.00000
 BRILLOUIN|   486           0.00195       -0.01562       -0.32812        0.00000
 BRILLOUIN|   487           0.00195       -0.01562       -0.29688        0.00000
 BRILLOUIN|   488           0.00195       -0.01562       -0.26562        0.00000
 BRILLOUIN|   489           0.00195       -0.01562       -0.23438        0.00000
 BRILLOUIN|   490           0.00195       -0.01562       -0.20312        0.00000
 BRILLOUIN|   491           0.00195       -0.01562       -0.17188        0.00000
 BRILLOUIN|   492           0.00195       -0.01562       -0.14062        0.00000
 BRILLOUIN|   493           0.00195       -0.01562       -0.10938        0.00000
 BRILLOUIN|   494           0.00195       -0.01562       -0.07812        0.00000
 BRILLOUIN|   495           0.00195       -0.01562       -0.04688        0.00000
 BRILLOUIN|   496           0.00195       -0.01562       -0.01562        0.00000
 BRILLOUIN|   497           0.00195       -0.01562        0.01562        0.00000
 BRILLOUIN|   498           0.00195       -0.01562        0.04688        0.00000
 BRILLOUIN|   499           0.00195       -0.01562        0.07812        0.00000
 BRILLOUIN|   500           0.00195       -0.01562        0.10938        0.00000
 BRILLOUIN|   501           0.00195       -0.01562        0.14062        0.00000
 BRILLOUIN|   502           0.00195       -0.01562        0.17188        0.00000
 BRILLOUIN|   503           0.00195       -0.01562        0.20312        0.00000
 BRILLOUIN|   504           0.00195       -0.01562        0.23438        0.00000
 BRILLOUIN|   505           0.00195       -0.01562        0.26562        0.00000
 BRILLOUIN|   506           0.00195       -0.01562        0.29688        0.00000
 BRILLOUIN|   507           0.00195       -0.01562        0.32812        0.00000
 BRILLOUIN|   508           0.00195       -0.01562        0.35938        0.00000
 BRILLOUIN|   509           0.00195       -0.01562        0.39062        0.00000
 BRILLOUIN|   510           0.00195       -0.01562        0.42188        0.00000
 BRILLOUIN|   511           0.00195       -0.01562        0.45312        0.00000
 BRILLOUIN|   512           0.00195       -0.01562        0.48438        0.00000
 *******************************************************************************

 *******************************************************************************
 *******************************************************************************
 **                                                                           **
 **     #####                         ##              ##                      **
 **    ##   ##            ##          ##              ##                      **
 **   ##     ##                       ##            ######                    **
 **   ##     ##  ##   ##  ##   #####  ##  ##   ####   ##    #####    #####    **
 **   ##     ##  ##   ##  ##  ##      ## ##   ##      ##   ##   ##  ##   ##   **
 **   ##  ## ##  ##   ##  ##  ##      ####     ###    ##   ######   ######    **
 **    ##  ###   ##   ##  ##  ##      ## ##      ##   ##   ##       ##        **
 **     #######   #####   ##   #####  ##  ##  ####    ##    #####   ##        **
 **           ##                                                    ##        **
 **                                                                           **
 **                                                ... make the atoms dance   **
 **                                                                           **
 **            Copyright (C) by CP2K developers group (2000-2025)             **
 **                      J. Chem. Phys. 152, 194103 (2020)                    **
 **                                                                           **
 *******************************************************************************

 DFT| Spin restricted Kohn-Sham (RKS) calculation                            RKS
 DFT| Multiplicity                                                             1
 DFT| Number of spin states                                                    1
 DFT| Charge                                                                   0
 DFT| Self-interaction correction (SIC)                                       NO
 DFT| Cutoffs: density                                              1.000000E-10
 DFT|          gradient                                             1.000000E-10
 DFT|          tau                                                  1.000000E-10
 DFT|          cutoff_smoothing_range                               0.000000E+00
 DFT| XC density smoothing                                                  NONE
 DFT| XC derivatives                                                          PW

 FUNCTIONAL| PBE:
 FUNCTIONAL| J.P.Perdew, K.Burke, M.Ernzerhof, Phys. Rev. Letter, vol. 77, n 18,
 FUNCTIONAL|  pp. 3865-3868, (1996) {spin unpolarized}                          


 QS| Method:                                                                GAPW
 QS| Density plane wave grid type                        NON-SPHERICAL FULLSPACE
 QS| Number of grid levels:                                                    4
 QS| Density cutoff [a.u.]:                                                250.0
 QS| Multi grid cutoff [a.u.]: 1) grid level                               250.0
 QS|                           2) grid level                                83.3
 QS|                           3) grid level                                27.8
 QS|                           4) grid level                                 9.3
 QS| Grid level progression factor:                                          3.0
 QS| Relative density cutoff [a.u.]:                                        50.0
 QS| Interaction thresholds: eps_pgf_orb:                                1.0E-12
 QS|                         eps_filter_matrix:                          0.0E+00
 QS|                         eps_core_charge:                            1.0E-14
 QS|                         eps_rho_gspace:                             1.0E-12
 QS|                         eps_rho_rspace:                             1.0E-12
 QS|                         eps_gvg_rspace:                             1.0E-06
 QS|                         eps_ppl:                                    1.0E-02
 QS|                         eps_ppnl:                                   1.0E-08
 QS| GAPW|      One center basis from orbital basis primitives
 QS| GAPW|                   eps_fit:                                    1.0E-04
 QS| GAPW|                   eps_iso:                                    1.0E-12
 QS| GAPW|                   eps_svd:                                    1.0E-08
 QS| GAPW|                   eps_cpc:                                    1.0E-12
 QS| GAPW|   atom-r-grid: quadrature:                                     GC_LOG
 QS| GAPW|      atom-s-grid:  max l :                                          6
 QS| GAPW|      max_l_rho0 :                                                   2
 QS| GAPW|      At least one kind is NOT PAW, i.e. it has only soft AO 
 QS| GAPW|      The NOT PAW atoms are treated fully GPW


 ATOMIC KIND INFORMATION

  1. Atomic kind: W                                     Number of atoms:       1

     Orbital Basis Set                                     aug-SZV-MOLOPT-SR-GTH

       Number of orbital shell sets:                                           1
       Number of orbital shells:                                               8
       Number of primitive Cartesian functions:                                6
       Number of Cartesian basis functions:                                   31
       Number of spherical basis functions:                                   26
       Norm type:                                                              2

       Normalised Cartesian orbitals:

                        Set   Shell   Orbital            Exponent    Coefficient

                          1       1    2s                0.074662      -0.014288
                                                         0.214446      -0.013622
                                                         0.501100      -0.158409
                                                         1.106150      -0.674409
                                                         2.893835       0.343542
                                                         3.103253       0.529378

                          1       2    3s                0.074662       0.097559
                                                         0.214446       0.068377
                                                         0.501100      -0.211692
                                                         1.106150      -0.477565
                                                         2.893835       0.569551
                                                         3.103253      -0.097470

                          1       3    4s                0.074662       0.110154
                                                         0.214446       0.032057
                                                         0.501100      -0.205812
                                                         1.106150       0.074053
                                                         2.893835       0.052359
                                                         3.103253       0.028561

                          1       4    3px               0.074662       0.000342
                                                         0.214446      -0.010443
                                                         0.501100      -0.267354
                                                         1.106150      -0.965857
                                                         2.893835      -5.556403
                                                         3.103253       6.695558
                          1       4    3py               0.074662       0.000342
                                                         0.214446      -0.010443
                                                         0.501100      -0.267354
                                                         1.106150      -0.965857
                                                         2.893835      -5.556403
                                                         3.103253       6.695558
                          1       4    3pz               0.074662       0.000342
                                                         0.214446      -0.010443
                                                         0.501100      -0.267354
                                                         1.106150      -0.965857
                                                         2.893835      -5.556403
                                                         3.103253       6.695558

                          1       5    4px               0.074662      -0.025823
                                                         0.214446      -0.106983
                                                         0.501100      -0.110188
                                                         1.106150       0.090439
                                                         2.893835       0.313766
                                                         3.103253       0.343398
                          1       5    4py               0.074662      -0.025823
                                                         0.214446      -0.106983
                                                         0.501100      -0.110188
                                                         1.106150       0.090439
                                                         2.893835       0.313766
                                                         3.103253       0.343398
                          1       5    4pz               0.074662      -0.025823
                                                         0.214446      -0.106983
                                                         0.501100      -0.110188
                                                         1.106150       0.090439
                                                         2.893835       0.313766
                                                         3.103253       0.343398

                          1       6    4dx2              0.074662       0.002139
                                                         0.214446       0.042391
                                                         0.501100       0.198591
                                                         1.106150       0.570193
                                                         2.893835       1.052039
                                                         3.103253      -0.912703
                          1       6    4dxy              0.074662       0.003705
                                                         0.214446       0.073424
                                                         0.501100       0.343970
                                                         1.106150       0.987602
                                                         2.893835       1.822186
                                                         3.103253      -1.580848
                          1       6    4dxz              0.074662       0.003705
                                                         0.214446       0.073424
                                                         0.501100       0.343970
                                                         1.106150       0.987602
                                                         2.893835       1.822186
                                                         3.103253      -1.580848
                          1       6    4dy2              0.074662       0.002139
                                                         0.214446       0.042391
                                                         0.501100       0.198591
                                                         1.106150       0.570193
                                                         2.893835       1.052039
                                                         3.103253      -0.912703
                          1       6    4dyz              0.074662       0.003705
                                                         0.214446       0.073424
                                                         0.501100       0.343970
                                                         1.106150       0.987602
                                                         2.893835       1.822186
                                                         3.103253      -1.580848
                          1       6    4dz2              0.074662       0.002139
                                                         0.214446       0.042391
                                                         0.501100       0.198591
                                                         1.106150       0.570193
                                                         2.893835       1.052039
                                                         3.103253      -0.912703

                          1       7    5dx2              0.074662      -0.005539
                                                         0.214446      -0.055672
                                                         0.501100      -0.201982
                                                         1.106150       0.147656
                                                         2.893835       0.458842
                                                         3.103253       0.902631
                          1       7    5dxy              0.074662      -0.009594
                                                         0.214446      -0.096427
                                                         0.501100      -0.349843
                                                         1.106150       0.255748
                                                         2.893835       0.794738
                                                         3.103253       1.563402
                          1       7    5dxz              0.074662      -0.009594
                                                         0.214446      -0.096427
                                                         0.501100      -0.349843
                                                         1.106150       0.255748
                                                         2.893835       0.794738
                                                         3.103253       1.563402
                          1       7    5dy2              0.074662      -0.005539
                                                         0.214446      -0.055672
                                                         0.501100      -0.201982
                                                         1.106150       0.147656
                                                         2.893835       0.458842
                                                         3.103253       0.902631
                          1       7    5dyz              0.074662      -0.009594
                                                         0.214446      -0.096427
                                                         0.501100      -0.349843
                                                         1.106150       0.255748
                                                         2.893835       0.794738
                                                         3.103253       1.563402
                          1       7    5dz2              0.074662      -0.005539
                                                         0.214446      -0.055672
                                                         0.501100      -0.201982
                                                         1.106150       0.147656
                                                         2.893835       0.458842
                                                         3.103253       0.902631

                          1       8    5fx3              0.074662       0.000325
                                                         0.214446       0.032337
                                                         0.501100       0.095319
                                                         1.106150       0.075344
                                                         2.893835       0.567697
                                                         3.103253       0.419733
                          1       8    5fx2y             0.074662       0.000727
                                                         0.214446       0.072308
                                                         0.501100       0.213140
                                                         1.106150       0.168474
                                                         2.893835       1.269409
                                                         3.103253       0.938552
                          1       8    5fx2z             0.074662       0.000727
                                                         0.214446       0.072308
                                                         0.501100       0.213140
                                                         1.106150       0.168474
                                                         2.893835       1.269409
                                                         3.103253       0.938552
                          1       8    5fxy2             0.074662       0.000727
                                                         0.214446       0.072308
                                                         0.501100       0.213140
                                                         1.106150       0.168474
                                                         2.893835       1.269409
                                                         3.103253       0.938552
                          1       8    5fxyz             0.074662       0.001260
                                                         0.214446       0.125240
                                                         0.501100       0.369169
                                                         1.106150       0.291805
                                                         2.893835       2.198681
                                                         3.103253       1.625620
                          1       8    5fxz2             0.074662       0.000727
                                                         0.214446       0.072308
                                                         0.501100       0.213140
                                                         1.106150       0.168474
                                                         2.893835       1.269409
                                                         3.103253       0.938552
                          1       8    5fy3              0.074662       0.000325
                                                         0.214446       0.032337
                                                         0.501100       0.095319
                                                         1.106150       0.075344
                                                         2.893835       0.567697
                                                         3.103253       0.419733
                          1       8    5fy2z             0.074662       0.000727
                                                         0.214446       0.072308
                                                         0.501100       0.213140
                                                         1.106150       0.168474
                                                         2.893835       1.269409
                                                         3.103253       0.938552
                          1       8    5fyz2             0.074662       0.000727
                                                         0.214446       0.072308
                                                         0.501100       0.213140
                                                         1.106150       0.168474
                                                         2.893835       1.269409
                                                         3.103253       0.938552
                          1       8    5fz3              0.074662       0.000325
                                                         0.214446       0.032337
                                                         0.501100       0.095319
                                                         1.106150       0.075344
                                                         2.893835       0.567697
                                                         3.103253       0.419733

     RI Auxiliary Basis Set             RI_aug-SZV-MOLOPT-GTH_N_RI_076_s_p_d_f_g

       Number of orbital shell sets:                                          18
       Number of orbital shells:                                              18
       Number of primitive Cartesian functions:                               18
       Number of Cartesian basis functions:                                  107
       Number of spherical basis functions:                                   76
       Norm type:                                                              2

       Normalised Cartesian orbitals:

                        Set   Shell   Orbital            Exponent    Coefficient

                          1       1    1s                0.189053       0.204337

                          2       1    7px               0.264845       0.270819
                          2       1    7py               0.264845       0.270819
                          2       1    7pz               0.264845       0.270819

                          3       1   11dx2              0.294055       0.193268
                          3       1   11dxy              0.294055       0.334750
                          3       1   11dxz              0.294055       0.334750
                          3       1   11dy2              0.294055       0.193268
                          3       1   11dyz              0.294055       0.334750
                          3       1   11dz2              0.294055       0.193268

                          4       1   16gx4              0.336043       0.055465
                          4       1   16gx3y             0.336043       0.146747
                          4       1   16gx3z             0.336043       0.146747
                          4       1   16gx2y2            0.336043       0.189449
                          4       1   16gx2yz            0.336043       0.328136
                          4       1   16gx2z2            0.336043       0.189449
                          4       1   16gxy3             0.336043       0.146747
                          4       1   16gxy2z            0.336043       0.328136
                          4       1   16gxyz2            0.336043       0.328136
                          4       1   16gxz3             0.336043       0.146747
                          4       1   16gy4              0.336043       0.055465
                          4       1   16gy3z             0.336043       0.146747
                          4       1   16gy2z2            0.336043       0.189449
                          4       1   16gyz3             0.336043       0.146747
                          4       1   16gz4              0.336043       0.055465

                          5       1    2s                0.362163       0.332727

                          6       1   14fx3              0.426326       0.216209
                          6       1   14fx2y             0.426326       0.483457
                          6       1   14fx2z             0.426326       0.483457
                          6       1   14fxy2             0.426326       0.483457
                          6       1   14fxyz             0.426326       0.837372
                          6       1   14fxz2             0.426326       0.483457
                          6       1   14fy3              0.426326       0.216209
                          6       1   14fy2z             0.426326       0.483457
                          6       1   14fyz2             0.426326       0.483457
                          6       1   14fz3              0.426326       0.216209

                          7       1   18hx5              0.587886       0.131992
                          7       1   18hx4y             0.587886       0.395975
                          7       1   18hx4z             0.587886       0.395975
                          7       1   18hx3y2            0.587886       0.604862
                          7       1   18hx3yz            0.587886       1.047651
                          7       1   18hx3z2            0.587886       0.604862
                          7       1   18hx2y3            0.587886       0.604862
                          7       1   18hx2y2z           0.587886       1.352512
                          7       1   18hx2yz2           0.587886       1.352512
                          7       1   18hx2z3            0.587886       0.604862
                          7       1   18hxy4             0.587886       0.395975
                          7       1   18hxy3z            0.587886       1.047651
                          7       1   18hxy2z2           0.587886       1.352512
                          7       1   18hxyz3            0.587886       1.047651
                          7       1   18hxz4             0.587886       0.395975
                          7       1   18hy5              0.587886       0.131992
                          7       1   18hy4z             0.587886       0.395975
                          7       1   18hy3z2            0.587886       0.604862
                          7       1   18hy2z3            0.587886       0.604862
                          7       1   18hyz4             0.587886       0.395975
                          7       1   18hz5              0.587886       0.131992

                          8       1    8px               0.682676       0.884522
                          8       1    8py               0.682676       0.884522
                          8       1    8pz               0.682676       0.884522

                          9       1    3s                0.703338       0.547372

                         10       1   12dx2              0.951478       1.508716
                         10       1   12dxy              0.951478       2.613172
                         10       1   12dxz              0.951478       2.613172
                         10       1   12dy2              0.951478       1.508716
                         10       1   12dyz              0.951478       2.613172
[...]

 U. Borstnik, J. VandeVondele, V. Weber, J. Hutter.
 Parallel Comput. 40, 47-58 (2014).
 Sparse matrix multiplication: The distributed block-compressed sparse row 
 library.
 https://doi.org/10.1016/j.parco.2014.03.012

 A. Marek, V. Blum, R. Johanni, V. Havu, B. Lang, T. Auckenthaler, A. Heinecke, 
 H. Bungartz, H. Lederer.
 J. Phys. Condens. Matter 26, 213201 (2014).
 The ELPA library: scalable parallel eigenvalue solutions for electronic 
 structure theory and computational science.
 https://doi.org/10.1088/0953-8984/26/21/213201

 J. VandeVondele, J. Hutter.
 J. Chem. Phys. 127, 114105 (2007).
 Gaussian basis sets for accurate calculations on molecular systems in gas and 
 condensed phases.
 https://doi.org/10.1063/1.2770708

 M. Krack.
 Theor. Chem. Acc. 114, 145-152 (2005).
 Pseudopotentials for H to Kr optimized for gradient-corrected 
 exchange-correlation functionals.
 https://doi.org/10.1007/s00214-005-0655-y

 M. Frigo, S. G. Johnson.
 Proc. IEEE 93, 216-231 (2005).
 The design and implementation of FFTW3.
 https://doi.org/10.1109/JPROC.2004.840301

 M. Krack, M. Parrinello.
 Phys. Chem. Chem. Phys. 2, 2105-2112 (2000).
 All-electron ab-initio molecular dynamics.
 https://doi.org/10.1039/b001167n

 G. Lippert, J. Hutter, M. Parrinello.
 Theor. Chem. Acc. 103, 124-140 (1999).
 The Gaussian and augmented-plane-wave density functional method for ab initio 
 molecular dynamics simulations.
 https://doi.org/10.1007/s002140050523

 C. Hartwigsen, S. Goedecker, J. Hutter.
 Phys. Rev. B 58, 3641-3662 (1998).
 Relativistic separable dual-space Gaussian pseudopotentials from H to Rn.
 https://doi.org/10.1103/PhysRevB.58.3641

 S. Goedecker, M. Teter, J. Hutter.
 Phys. Rev. B 54, 1703-1710 (1996).
 Separable dual-space Gaussian pseudopotentials.
 https://doi.org/10.1103/PhysRevB.54.1703

 J. P. Perdew, K. Burke, M. Ernzerhof.
 Phys. Rev. Lett. 77, 3865-3868 (1996).
 Generalized gradient approximation made simple.
 https://doi.org/10.1103/PhysRevLett.77.3865


 -------------------------------------------------------------------------------
 -                                                                             -
 -                                T I M I N G                                  -
 -                                                                             -
 -------------------------------------------------------------------------------
 SUBROUTINE                       CALLS  ASD         SELF TIME        TOTAL TIME
                                MAXIMUM       AVERAGE  MAXIMUM  AVERAGE  MAXIMUM
 CP2K                                 1  1.0     0.00     0.02 14125.80 14125.81
 qs_energies                          1  2.0     0.00     0.00 14125.29 14125.31
 qs_energies_properties               1  3.0     0.00     0.00 14047.27 14047.29
 post_scf_bandstructure               1  4.0     0.00     0.00 14047.27 14047.29
 gw                                   1  5.0     0.00     0.00 13996.03 13996.04
 gw_calc_small_cell_full_kp           1  6.0     0.00     0.00 13918.35 13918.36
 compute_W_real_space                 1  7.0    13.10    13.32  8418.27  8418.32
 compute_Minv_and_Vsqrt               1  8.0     0.17     0.18  7491.48  7491.83
 build_2c_coulomb_matrix_kp_sma       2  9.0     3.05     3.38  7473.99  7474.01
 build_2c_coulomb_matrix_kp_sma  655360 10.0  6607.32  7119.37  6607.32  7119.37
 dbt_total                      *******  9.9    21.78    24.75  4495.37  4792.85
 dbt_contract                   7758390 10.6    28.10    30.28  3589.68  3823.32
 dbt_tas_multiply               3573340 13.0     3.00     3.30  3359.62  3592.66
 dbt_tas_total                  3573340 14.0   187.15   203.10  3357.79  3590.68
 compute_Sigma_c                      1  7.0     0.00     0.01  3233.66  3233.66
 contract_to_Sigma                  671  8.0    37.89    40.36  1887.78  2133.06
 compute_chi                          1  7.0     0.06     0.08  2043.42  2043.48
 mp_sync                        ******* 11.8  1166.60  1622.73  1166.60  1622.73
 dbt_tas_dbm                    3573340 15.0     2.83     3.23  1447.17  1544.89
 dbm_multiply                   3573340 17.0  1440.96  1537.96  1440.96  1537.96
 contract_to_Sigma_3c_x_G       3182614  9.0     3.73     4.37  1043.15  1210.88
 dbt_tas_estimate_result_nze    1786670 13.5   248.31   267.84  1047.68  1136.02
 contract_W                         341  8.0     5.95     6.26  1041.10  1108.49
 dbt_copy                       8136330 11.1    23.48    25.80   989.65  1100.53
 G_times_3c                       24480  8.0     8.04     8.32   970.72  1023.27
 contract_M_occ_vir_to_chi          330  8.0    64.50    71.08   805.69   913.46
 contract_to_Sigma_contract       24888  9.0     9.06     9.69   795.01   872.39
 dbt_reshape                    4925060 12.0   507.28   596.89   721.74   804.83
 dbt_tas_mm_3T                  1478840 16.2     0.87     0.99   558.87   604.58
 get_t_3c_int                   5048848  9.6    24.40    26.46   540.73   602.58
 dbt_tas_mm_2                   1159318 16.2     1.13     1.26   560.23   600.73
 reshape_mm_small               3573340 15.0   200.73   217.64   419.41   454.03
 add_rs_to_ikp                  *******  9.7   352.82   368.53   352.82   368.53
 trafo_rs_to_ikp                  28692  8.1    11.38    12.63   345.68   356.55
 dbt_tas_mm_1N                   935414 15.5     0.52     0.61   324.68   344.61
 dbt_tas_reshape                3988778 15.5    24.20    26.19   312.28   323.00
 add_ikp_to_rs                  *******  9.8   236.06   257.25   236.06   257.25
 convert_to_new_pgrid           ******* 15.0    40.59    44.39   224.47   246.48
 add_ikp_to_all_rs                26302  8.0     9.06     9.83   225.31   245.42
 dbt_tas_create_split           ******* 16.0     5.81     6.42   209.52   228.08
 dbt_tas_create_split_rows_or_c ******* 17.0    21.34    23.15   203.71   221.71
 add_V_L                         327680 10.0    18.20   219.47    18.20   219.47
 dbm_reserve_blocks             ******* 16.5   196.60   214.36   196.60   214.36
 dbt_tas_reserve_blocks_index   ******* 15.6    10.22    10.84   192.01   209.84
 dbm_copy                       7146680 16.0   183.87   207.10   183.87   207.10
 power                            54484  8.0    10.77    11.46   194.80   205.62
 reshape_mm_compatible          3573340 15.0    27.88    30.89   188.23   204.28
 G_occ_vir                          121  8.0     0.31     0.41   197.12   197.59
 diag_complex                     54484  9.0   184.03   194.36   184.03   194.36
 dbt_remap                       230108 11.0    20.60    21.88   149.37   166.67
 dbt_tas_copy                   3327014 12.6    84.08   100.28   136.85   162.80
 dbt_tas_replicate              3573340 15.0    77.51    84.28   148.33   161.69
 dbt_tas_reshape_buffer_fill    3988778 16.5   153.42   158.02   153.42   158.02
 dbt_tas_distribution_new       8269710 15.8    76.73    81.49   146.11   156.34
 parallel_gemm_cfm               280952  8.9     0.16     0.20   143.25   147.53
 parallel_gemm_cfm_cosma         280952  9.9   143.09   147.38   143.09   147.38
 change_split                   4944572 15.5     9.35    10.27   131.85   144.63
 dbt_communicate_buffer         4925060 13.0   124.92   140.47   124.92   140.47
 mp_cart_create                 ******* 16.7   111.16   118.81   120.11   128.39
 dbt_reserve_blocks_index_array 5712983 13.0     4.19     4.87   109.07   128.02
 dbt_reserve_blocks_index       5868508 13.9     4.76     5.48   107.25   125.83
 dbcsr_complete_redistribute     416337  9.9     6.84    10.50   115.38   123.54
 fm_to_local_array                  934  8.1    21.24    24.77   122.39   123.14
 compute_QP_energies                  1  7.0     0.04     0.04   115.10   115.11
 fm_to_local_tensor              146072  9.0     1.61     1.71   115.07   115.08
 trafo_to_k_and_nn                71492  8.0     0.26     0.50   114.84   114.87
 copy_dbcsr_to_fm                225058  8.3     1.19     1.24   112.54   114.78
 mp_sum_dm                       655403 10.0   103.45   113.26   103.45   113.26
 compute_Sigma_x                      1  7.0     0.00     0.00   107.91   107.94
 dbt_copy_nocomm                 919260 11.0    57.53    72.26    84.02   102.65
 mp_sum_dm3                        1039  9.0    92.21   102.38    92.21   102.38
 dbt_tas_reshape_buffer_obtain  3988778 16.5    59.14    63.31    88.93    92.80
 dbt_tas_reserve_blocks_templat 6582044 14.1    18.57    20.58    79.20    88.46
 create_and_init_bs_env_for_gw        1  6.0     0.00     0.00    77.68    77.69
 scf_env_do_scf                       1  3.0     0.00     0.00    77.65    77.65
 scf_env_do_scf_inner_loop           44  4.0     0.00     0.01    77.65    77.65
 qs_scf_new_mos_kp                   44  5.0     0.00     0.00    74.34    74.36
 do_general_diag_kp                  44  6.0     0.21     0.23    74.34    74.36
 mp_alltoall_i22                 745571 10.3    63.50    72.95    63.50    72.95
 mp_comm_dup                    8871713 18.6    62.74    68.03    66.97    72.66
 local_dbt_to_global_fm              91  8.0     0.16     0.18    68.78    68.78
 dbm_add                        3573340 15.0    61.39    66.66    61.39    66.66
 dbt_tas_create_new             ******* 15.3    60.07    66.07    60.07    66.07
 fm_add_ikp_to_rs                123904  9.0    36.05    36.96    55.87    59.61
 compute_3c_integrals                 1  7.0     0.01     0.02    53.01    53.01
 build_3c_integrals                   1  8.0    49.12    50.94    51.07    52.87
 mult_W_with_Minv                    30  8.0     0.41     0.43    52.65    52.69
 mp_comm_free                   ******* 15.7    46.53    51.27    46.53    51.27
 global_matrix_to_local_matrix   146072 10.0     0.81     1.09    44.91    51.21
 fm_trafo_rs_to_ikp               71492  9.0    21.17    21.74    39.69    51.20
 copy_fm_to_dbcsr                191279  9.5     0.47     0.51    43.26    51.05
 add_R                          *******  9.3    36.18    38.11    48.32    50.97
 mp_comm_split_direct           ******* 18.0    42.77    46.20    45.65    49.34
 dbt_permute_index              9885832 12.2    38.75    42.86    44.10    48.79
 dbcsr_desymmetrize_deep         329234  8.6     2.35     2.78    44.33    46.85
 dbt_tas_merge                  1159318 15.2    27.14    29.35    35.36    38.41
 dbcsr_finalize                 1723873 11.2     6.67     7.63    30.64    36.99
 mp_cart_sub                     450195 10.3    33.59    33.65    33.59    33.65
 dbt_reserve_blocks_template     919260 12.0     2.38     3.04    26.49    33.19
 dos_pdos_ldos                        1  5.0     0.00     0.01    32.32    32.34
 dbt_align_index                5360010 11.5     4.91     5.27    29.58    32.07
 fm_MWM_R_t_to_local_tensor_W_R      30  8.0     0.03     0.03    31.94    31.94
 dbt_tas_communicate_buffer     7562118 17.3    28.32    31.69    28.32    31.69
 dbt_tas_reshape_communicate_bu 3988778 16.5     2.75     2.98    27.64    30.67
 cp_cfm_heevd                      6096  7.6     0.00     0.00    30.09    30.16
 cp_cfm_heevd_base                 6096  8.6    30.09    30.15    30.09    30.15
 SOC_ev                            2344  6.0     0.03     0.03    28.34    28.36
 get_V_tr_R                          34  9.0     0.09     0.10    28.01    28.35
 dbm_filter                     5166865 15.0    26.07    28.07    26.07    28.07
 dbt_tas_mp_comm                1994389 13.2     2.74     3.02    25.04    27.06
 mp_waitall_1                   1145052 11.5    19.55    26.96    19.55    26.96
 send_data                       146072 11.0     0.08     0.10    20.67    26.83
 communicate_buffer              146072 12.0     1.20     4.70    20.59    26.75
 dbcsr_filter_anytype            653191 11.0     2.44     2.65    19.78    25.74
 reshape_mm_template             460216 15.5    14.57    15.42    23.44    24.71
 dbt_distribution_new_expert     752370 12.1     3.87     4.03    23.09    24.34
 local_dbt_to_global_mat          87451  9.0     0.55     0.59    17.11    24.01
 is_cell_in_index_to_cell       *******  9.7    20.85    22.07    20.85    22.07
 dbt_destroy                    ******* 11.3    17.35    18.33    19.13    20.11
 mp_cart_get                    ******* 16.0    17.57    19.12    17.57    19.12
 dbcsr_merge_all                 646939 12.0    10.53    13.29    14.86    17.77
 local_matrix_to_global_matrix    87451 10.0     0.16     0.17    10.51    17.33
 kpoint_density_transform            44  7.0     0.07     0.08    16.63    16.65
 mp_comm_size                   ******* 16.2    14.90    16.24    14.90    16.24
 dbt_create_matrix               146072 10.0     0.82     0.84    15.14    15.54
 dbm_scale                      9043054 13.1    14.28    15.53    14.28    15.53
 heuristic_RI_regularization          1  7.0     0.00     0.00    14.57    14.57
 mp_sum_i                       3303980 15.9    13.09    14.38    13.09    14.38
 dbt_create_new                  376185 11.6     2.52     2.66    13.30    13.96
 dbt_tas_reshape_get_coord      3988778 16.5    12.66    13.87    12.66    13.87
 create_and_init_bs_env               1  5.0     0.00     0.00    13.73    13.73
 compute_cfm_mo_coeff_kp_and_ei       1  6.0     0.00     0.00    13.73    13.73
 send_sizes_1                    146072 11.0     0.08     0.09    12.32    13.60
 mp_alltoall_i                  ******* 14.9    12.79    13.59    12.79    13.59
 get_data                        146072 11.0     1.75    12.44     1.97    12.69
 mp_comm_rank                   ******* 16.2    11.41    12.48    11.41    12.48
 rskp_transform                   52088  7.2     0.75    11.93     0.75    11.93
 set_blocks                       87451 11.0     0.51     1.53     5.56    10.61
 cp_cfm_geeig_canon                1172  7.0     0.00     0.01    10.48    10.50
 rsmat_to_kp                       7032  7.2     0.05     0.06     9.16     9.35
 dbcsr_iterator_start           3627042 11.1     8.34     8.66     8.96     9.32
 cp_fm_start_copy_general        135168  7.3     0.62     1.14     8.14     8.27
 dbt_create_template            1304155  9.0     7.43     7.98     7.43     7.98
 dbcsr_work_create               976173 10.6     4.59     5.47     6.93     7.92
 dbt_create_3c_R1_R2                 62  8.0     0.87     0.92     7.39     7.90
 dbcsr_work_destroy_all          976173 11.5     4.14     5.11     6.28     7.68
 mp_alltoall_d11v               2236713 10.7     3.52     7.44     3.52     7.44
 mp_isend_dv                    6078798 12.3     0.63     7.39     0.63     7.39
 dbt_pgrid_create_expert         752373 13.1     0.83     0.88     6.57     6.89
 mp_cart_rank                   4828226 15.9     5.21     6.28     5.21     6.28
 copy_fm_to_dbcsr_bc             191279 10.5     1.69     1.77     5.81     5.97
 mp_sum_l                       ******* 15.2     5.15     5.65     5.15     5.65
 transform_dmat                   22528  8.0     0.34     5.61     0.34     5.61
 setup_cells_3c                       1  7.0     0.21     0.22     5.59     5.59
 build_3c_integral_block          16092  8.0     1.81     1.93     5.14     5.38
 soc                                  1  5.0     0.00     0.00     5.19     5.19
 H_KS_spinor_kp                       1  6.0     0.01     0.01     5.16     5.17
 mp_allgather_i                  270336  8.3     4.91     5.15     4.91     5.15
 dbt_copy_matrix_to_tensor       146072 10.0     1.78     1.91     4.92     5.12
 dbcsr_iterator_stop            3627042 11.1     4.45     4.64     4.90     5.10
 dbt_nd_mp_comm                  376180 11.6     0.52     0.57     4.79     4.99
 dbcsr_create_new               1348912 10.2     3.86     4.06     4.64     4.90
 dbt_tas_reshape_alltoall       3988778 16.5     2.27     2.48     4.28     4.77
 destroy_t_2d                        62  8.0     0.99     1.45     4.22     4.71
 dbcsr_data_release             ******* 12.3     3.89     4.70     3.89     4.70
 dbt_tas_replicate_communicate_ 2414022 15.9     1.50     1.66     4.14     4.50
 mp_sum_dv                        78661  8.9     3.46     4.42     3.46     4.42
 get_Minv_Vtr_Minv_R                  1  8.0     0.02     0.02     4.31     4.33
 reserve_blocks                  146072 11.0     0.34     0.37     4.16     4.25
 send_sizes_2                    146072 11.0     0.08     0.09     3.69     4.03
 mp_alltoall_i11v               1578245 10.6     2.60     3.85     2.60     3.85
 copy_dbcsr_to_fm_bc             225058  9.3     1.49     1.63     3.67     3.76
 mp_max_i                       ******* 11.6     3.20     3.62     3.20     3.62
 dbcsr_data_new                 ******* 11.7     3.29     3.62     3.29     3.62
 compute_proj_mo_on_kind           1172  6.0     0.02     0.03     3.30     3.35
 mp_bcast_i                     ******* 18.0     2.76     3.29     2.76     3.29
 abc_contract_xsmm                39496  9.0     3.12     3.23     3.12     3.23
 tree_to_linear_d                490985 12.9     2.95     3.17     2.95     3.17
 trafo_V_xc_R_to_kp                   1  7.0     0.01     0.01     2.85     2.87
 comm_size                        87451 11.0     0.06     0.06     2.57     2.84
 build_2c_integrals                  34 10.0     0.09     1.24     0.23     2.64
 dbcsr_destroy                  1247267  9.8     1.42     1.47     2.40     2.57
 mp_dims_create                 8269707 14.4     2.18     2.46     2.18     2.46
 dbt_tas_replicate_alltoall     2414022 15.9     1.22     1.34     2.18     2.43
 dbcsr_reserve_blocks            561369 12.2     1.27     2.07     1.54     2.39
 dbt_distribution_destroy        752370 12.1     1.75     1.86     2.19     2.33
 mp_bcast_iv                     540769  8.3     1.91     2.14     1.91     2.14
 mp_isend_im2                   6087246 12.9     0.26     2.11     0.26     2.11
 dbt_buffer_get_index           7562118 16.8     1.81     2.02     1.81     2.02
 local_array_to_fm                  901  8.0     0.94     1.96     0.94     1.96
 hybrid_alltoall_any             329234  9.6     0.72     0.76     1.17     1.96
 dbt_reserve_blocks_matrix_to_t  146072 11.0     0.60     0.64     1.83     1.89
 comm_data                        87451 11.0     0.15     0.39     0.50     1.84
 dbcsr_set                      1411110 10.7     0.69     0.72     1.50     1.83
 cp_cfm_geeig                      1408  7.0     0.00     0.01     1.72     1.77
 dbt_tas_merge_communicate_buff 1159318 16.2     0.77     0.86     1.57     1.72
 add_to_DOS_PDOS                   4688  6.5     1.56     1.60     1.56     1.60
 qs_ks_update_qs_env                 44  5.0     0.00     0.00     1.57     1.59
 get_coord                        87451 11.0     0.51     0.58     1.01     1.56
 qs_ks_build_kohn_sham_matrix        47  7.1     0.01     0.01     1.52     1.55
 alloc_block_3c                       1  9.0     0.09     0.10     1.47     1.53
 dbcsr_reserve_all_blocks        278730 11.7     0.22     0.24     0.84     1.51
 dbt_tas_merge_alltoall         1159318 16.2     0.73     0.84     1.30     1.49
 add_cfm_submat                   11720  7.0     0.05     0.05     1.25     1.47
 rebuild_ks_matrix                   44  6.0     0.00     0.00     1.43     1.45
 dbt_copy_tensor_to_matrix        87451 10.0     0.47     0.51     1.34     1.42
 -------------------------------------------------------------------------------

 The number of warnings for this run is : 1
 
 -------------------------------------------------------------------------------
  **** **** ******  **  PROGRAM ENDED AT                 2025-03-21 03:21:41.478
 ***** ** ***  *** **   PROGRAM RAN ON                                 n2lcn0152
 **    ****   ******    PROGRAM RAN BY                                  metdyn02
 ***** **    ** ** **   PROGRAM PROCESS ID                                 82263
  **** **  *******  **  PROGRAM STOPPED IN /scratch/hpc-prf-metdyn/metdyn02_Remi
                                           /05_TMD_new/paperbenchmarks/regulariz
                                           ation/1e-3/3
