 DBCSR| CPU Multiplication driver                                           XSMM (U)
 DBCSR| Multrec recursion limit                                              512 (U)
 DBCSR| Multiplication stack size                                           1000 (D)
 DBCSR| Maximum elements for images                                    UNLIMITED (U)
 DBCSR| Multiplicative factor virtual images                                   1 (U)
 DBCSR| Use multiplication densification                                       T (D)
 DBCSR| Multiplication size stacks                                             3 (U)
 DBCSR| Use memory pool for CPU allocation                                     F (U)
 DBCSR| Number of 3D layers                                               SINGLE (U)
 DBCSR| Use MPI memory allocation                                              F (U)
 DBCSR| Use RMA algorithm                                                      F (U)
 DBCSR| Use Communication thread                                               T (U)
 DBCSR| Communication thread load                                             60 (D)
 DBCSR| MPI: My process id                                                     0
 DBCSR| MPI: Number of processes                                             256
 DBCSR| OMP: Current number of threads                                         8
 DBCSR| OMP: Max number of threads                                             8
 DBCSR| Split modifier for TAS multiplication algorithm                  1.0E+00 (U)


  **** **** ******  **  PROGRAM STARTED AT               2025-07-15 11:15:18.215
 ***** ** ***  *** **   PROGRAM STARTED ON                 n2cn0603.ab2021.local
 **    ****   ******    PROGRAM STARTED BY                              metdyn02
 ***** **    ** ** **   PROGRAM PROCESS ID                               3797900
  **** **  *******  **  PROGRAM STARTED IN /scratch/hpc-prf-metdyn/metdyn02_Remi
                                           /05_TMD_new/2_MoSe2/SZVnonaug

 CP2K| version string:                 CP2K version 2025.1 (Development Version)
 CP2K| source code revision number:                                  git:400017f
 CP2K| cp2kflags: omp libint fftw3 libxc libgrpp elpa parallel scalapack mpi_f08
 CP2K|             cosma xsmm plumed2 spglib libvori libbqb libvdwxc hdf5
 CP2K| is freely available from                            https://www.cp2k.org/
 CP2K| Program compiled at                         Thu Jun 26 12:02:16 CEST 2025
 CP2K| Program compiled on                                              n2login1
 CP2K| Program compiled for                                                local
 CP2K| Data directory path    /opt/software/pc2/EB-SW/software/CP2K/2024.1-foss-
 CP2K| Input file name                                                    GW.inp

 GLOBAL| Force Environment number                                              1
 GLOBAL| Basis set file name                                        BASIS_MOLOPT
 GLOBAL| Potential file name                                  GTH_SOC_POTENTIALS
 GLOBAL| MM Potential file name                                     MM_POTENTIAL
 GLOBAL| Coordinate file name                                      __STD_INPUT__
 GLOBAL| Method name                                                        CP2K
 GLOBAL| Project name                                                      MoSe2
 GLOBAL| Run type                                                         ENERGY
 GLOBAL| FFT library                                                       FFTW3
 GLOBAL| Diagonalization library                                            ELPA
 GLOBAL| Cholesky decomposition library                                ScaLAPACK
 GLOBAL| DGEMM library                                                      BLAS
 GLOBAL| Minimum number of eigenvectors for ELPA usage                        16
 GLOBAL| Orthonormality check for eigenvectors                          DISABLED
 GLOBAL| Matrix multiplication library                                     COSMA
 GLOBAL| All-to-all communication in single precision                          F
 GLOBAL| FFTs using library dependent lengths                                  F
 GLOBAL| Grid backend                                                       AUTO
 GLOBAL| Global print level                                               MEDIUM
 GLOBAL| MPI I/O enabled                                                       T
 GLOBAL| Total number of message passing processes                           256
 GLOBAL| Number of threads for this process                                    8
 GLOBAL| This output is from process                                           0
 GLOBAL| OpenMP stack size per thread (OMP_STACKSIZE)                    default
 GLOBAL| CPU model name                          AMD EPYC 7763 64-Core Processor
 GLOBAL| CPUID                                                              1002

 MEMORY| system memory details [Kb]
 MEMORY|                        rank 0           min           max       average
 MEMORY| MemTotal            263897600     263897560     263897624     263897597
 MEMORY| MemFree             242530764     238392788     250712736     244166009
 MEMORY| Buffers                 57344         38684        125036         78069
 MEMORY| Cached               12735632       6743308      17119300      11823540
 MEMORY| Slab                  2792412       1147688       2792412       2099363
 MEMORY| SReclaimable          1237340        248752       1237340        683700
 MEMORY| MemLikelyFree       256561080     255930556     257839044     256751319


 *** Fundamental physical constants (SI units) ***

 *** Literature: B. J. Mohr and B. N. Taylor,
 ***             CODATA recommended values of the fundamental physical
 ***             constants: 2006, Web Version 5.1
 ***             http://physics.nist.gov/constants

 Speed of light in vacuum [m/s]                             2.99792458000000E+08
 Magnetic constant or permeability of vacuum [N/A**2]       1.25663706143592E-06
 Electric constant or permittivity of vacuum [F/m]          8.85418781762039E-12
 Planck constant (h) [J*s]                                  6.62606896000000E-34
 Planck constant (h-bar) [J*s]                              1.05457162825177E-34
 Elementary charge [C]                                      1.60217648700000E-19
 Electron mass [kg]                                         9.10938215000000E-31
 Electron g factor [ ]                                     -2.00231930436220E+00
 Proton mass [kg]                                           1.67262163700000E-27
 Fine-structure constant                                    7.29735253760000E-03
 Rydberg constant [1/m]                                     1.09737315685270E+07
 Avogadro constant [1/mol]                                  6.02214179000000E+23
 Boltzmann constant [J/K]                                   1.38065040000000E-23
 Atomic mass unit [kg]                                      1.66053878200000E-27
 Bohr radius [m]                                            5.29177208590000E-11

 *** Conversion factors ***

 [u] -> [a.u.]                                              1.82288848426455E+03
 [Angstrom] -> [Bohr] = [a.u.]                              1.88972613288564E+00
 [a.u.] = [Bohr] -> [Angstrom]                              5.29177208590000E-01
 [a.u.] -> [s]                                              2.41888432650478E-17
 [a.u.] -> [fs]                                             2.41888432650478E-02
 [a.u.] -> [J]                                              4.35974393937059E-18
 [a.u.] -> [N]                                              8.23872205491840E-08
 [a.u.] -> [K]                                              3.15774647902944E+05
 [a.u.] -> [kJ/mol]                                         2.62549961709828E+03
 [a.u.] -> [kcal/mol]                                       6.27509468713739E+02
 [a.u.] -> [Pa]                                             2.94210107994716E+13
 [a.u.] -> [bar]                                            2.94210107994716E+08
 [a.u.] -> [atm]                                            2.90362800883016E+08
 [a.u.] -> [eV]                                             2.72113838565563E+01
 [a.u.] -> [Hz]                                             6.57968392072181E+15
 [a.u.] -> [1/cm] (wave numbers)                            2.19474631370540E+05
 [a.u./Bohr**2] -> [1/cm]                                   5.14048714338585E+03
 

 CELL_TOP| Volume [angstrom^3]:                                       143.175000
 CELL_TOP| Vector a [angstrom     3.320     0.000     0.000   |a| =     3.320000
 CELL_TOP| Vector b [angstrom    -1.660     2.875     0.000   |b| =     3.319823
 CELL_TOP| Vector c [angstrom     0.000     0.000    15.000   |c| =    15.000000
 CELL_TOP| Angle (b,c), alpha [degree]:                                90.000000
 CELL_TOP| Angle (a,c), beta  [degree]:                                90.000000
 CELL_TOP| Angle (a,b), gamma [degree]:                               120.001763
 CELL_TOP| Numerically orthorhombic:                                          NO
 CELL_TOP| Periodicity                                                        XY

 GENERATE|  Preliminary Number of Bonds generated:                             0
 GENERATE|  Achieved consistency in connectivity generation.

 CELL| Volume [angstrom^3]:                                           143.175000
 CELL| Vector a [angstrom]:       3.320     0.000     0.000   |a| =     3.320000
 CELL| Vector b [angstrom]:      -1.660     2.875     0.000   |b| =     3.319823
 CELL| Vector c [angstrom]:       0.000     0.000    15.000   |c| =    15.000000
 CELL| Angle (b,c), alpha [degree]:                                    90.000000
 CELL| Angle (a,c), beta  [degree]:                                    90.000000
 CELL| Angle (a,b), gamma [degree]:                                   120.001763
 CELL| Numerically orthorhombic:                                              NO
 CELL| Periodicity                                                            XY

 CELL_REF| Volume [angstrom^3]:                                       143.175000
 CELL_REF| Vector a [angstrom     3.320     0.000     0.000   |a| =     3.320000
 CELL_REF| Vector b [angstrom    -1.660     2.875     0.000   |b| =     3.319823
 CELL_REF| Vector c [angstrom     0.000     0.000    15.000   |c| =    15.000000
 CELL_REF| Angle (b,c), alpha [degree]:                                90.000000
 CELL_REF| Angle (a,c), beta  [degree]:                                90.000000
 CELL_REF| Angle (a,b), gamma [degree]:                               120.001763
 CELL_REF| Numerically orthorhombic:                                          NO
 CELL_REF| Periodicity                                                        XY

 *******************************************************************************
                                    Kpoints
 *******************************************************************************
 BRILLOUIN| K-point scheme                                        Monkhorst-Pack
 BRILLOUIN| K-Point grid                                            32   32    1
 BRILLOUIN| Accuracy in Symmetry determination                      0.100000E-05
 BRILLOUIN| K-Point point group symmetrization                               OFF
 BRILLOUIN| Wavefunction type                                            COMPLEX
 BRILLOUIN| List of Kpoints [2 Pi/Bohr]                                      512
 BRILLOUIN| Number           Weight            X              Y              Z
 BRILLOUIN|     1           0.00195       -0.48438       -0.48438        0.00000
 BRILLOUIN|     2           0.00195       -0.48438       -0.45312        0.00000
 BRILLOUIN|     3           0.00195       -0.48438       -0.42188        0.00000
 BRILLOUIN|     4           0.00195       -0.48438       -0.39062        0.00000
 BRILLOUIN|     5           0.00195       -0.48438       -0.35938        0.00000
 BRILLOUIN|     6           0.00195       -0.48438       -0.32812        0.00000
 BRILLOUIN|     7           0.00195       -0.48438       -0.29688        0.00000
 BRILLOUIN|     8           0.00195       -0.48438       -0.26562        0.00000
 BRILLOUIN|     9           0.00195       -0.48438       -0.23438        0.00000
 BRILLOUIN|    10           0.00195       -0.48438       -0.20312        0.00000
 BRILLOUIN|    11           0.00195       -0.48438       -0.17188        0.00000
 BRILLOUIN|    12           0.00195       -0.48438       -0.14062        0.00000
 BRILLOUIN|    13           0.00195       -0.48438       -0.10938        0.00000
 BRILLOUIN|    14           0.00195       -0.48438       -0.07812        0.00000
 BRILLOUIN|    15           0.00195       -0.48438       -0.04688        0.00000
 BRILLOUIN|    16           0.00195       -0.48438       -0.01562        0.00000
 BRILLOUIN|    17           0.00195       -0.48438        0.01562        0.00000
 BRILLOUIN|    18           0.00195       -0.48438        0.04688        0.00000
 BRILLOUIN|    19           0.00195       -0.48438        0.07812        0.00000
 BRILLOUIN|    20           0.00195       -0.48438        0.10938        0.00000
 BRILLOUIN|    21           0.00195       -0.48438        0.14062        0.00000
 BRILLOUIN|    22           0.00195       -0.48438        0.17188        0.00000
 BRILLOUIN|    23           0.00195       -0.48438        0.20312        0.00000
 BRILLOUIN|    24           0.00195       -0.48438        0.23438        0.00000
 BRILLOUIN|    25           0.00195       -0.48438        0.26562        0.00000
 BRILLOUIN|    26           0.00195       -0.48438        0.29688        0.00000
 BRILLOUIN|    27           0.00195       -0.48438        0.32812        0.00000
 BRILLOUIN|    28           0.00195       -0.48438        0.35938        0.00000
 BRILLOUIN|    29           0.00195       -0.48438        0.39062        0.00000
 BRILLOUIN|    30           0.00195       -0.48438        0.42188        0.00000
 BRILLOUIN|    31           0.00195       -0.48438        0.45312        0.00000
 BRILLOUIN|    32           0.00195       -0.48438        0.48438        0.00000
 BRILLOUIN|    33           0.00195       -0.45312       -0.48438        0.00000
 BRILLOUIN|    34           0.00195       -0.45312       -0.45312        0.00000
 BRILLOUIN|    35           0.00195       -0.45312       -0.42188        0.00000
 BRILLOUIN|    36           0.00195       -0.45312       -0.39062        0.00000
 BRILLOUIN|    37           0.00195       -0.45312       -0.35938        0.00000
 BRILLOUIN|    38           0.00195       -0.45312       -0.32812        0.00000
 BRILLOUIN|    39           0.00195       -0.45312       -0.29688        0.00000
 BRILLOUIN|    40           0.00195       -0.45312       -0.26562        0.00000
 BRILLOUIN|    41           0.00195       -0.45312       -0.23438        0.00000
 BRILLOUIN|    42           0.00195       -0.45312       -0.20312        0.00000
 BRILLOUIN|    43           0.00195       -0.45312       -0.17188        0.00000
 BRILLOUIN|    44           0.00195       -0.45312       -0.14062        0.00000
 BRILLOUIN|    45           0.00195       -0.45312       -0.10938        0.00000
 BRILLOUIN|    46           0.00195       -0.45312       -0.07812        0.00000
 BRILLOUIN|    47           0.00195       -0.45312       -0.04688        0.00000
 BRILLOUIN|    48           0.00195       -0.45312       -0.01562        0.00000
 BRILLOUIN|    49           0.00195       -0.45312        0.01562        0.00000
 BRILLOUIN|    50           0.00195       -0.45312        0.04688        0.00000
 BRILLOUIN|    51           0.00195       -0.45312        0.07812        0.00000
 BRILLOUIN|    52           0.00195       -0.45312        0.10938        0.00000
 BRILLOUIN|    53           0.00195       -0.45312        0.14062        0.00000
 BRILLOUIN|    54           0.00195       -0.45312        0.17188        0.00000
 BRILLOUIN|    55           0.00195       -0.45312        0.20312        0.00000
 BRILLOUIN|    56           0.00195       -0.45312        0.23438        0.00000
 BRILLOUIN|    57           0.00195       -0.45312        0.26562        0.00000
 BRILLOUIN|    58           0.00195       -0.45312        0.29688        0.00000
 BRILLOUIN|    59           0.00195       -0.45312        0.32812        0.00000
 BRILLOUIN|    60           0.00195       -0.45312        0.35938        0.00000
 BRILLOUIN|    61           0.00195       -0.45312        0.39062        0.00000
 BRILLOUIN|    62           0.00195       -0.45312        0.42188        0.00000
 BRILLOUIN|    63           0.00195       -0.45312        0.45312        0.00000
 BRILLOUIN|    64           0.00195       -0.45312        0.48438        0.00000
 BRILLOUIN|    65           0.00195       -0.42188       -0.48438        0.00000
 BRILLOUIN|    66           0.00195       -0.42188       -0.45312        0.00000
 BRILLOUIN|    67           0.00195       -0.42188       -0.42188        0.00000
 BRILLOUIN|    68           0.00195       -0.42188       -0.39062        0.00000
 BRILLOUIN|    69           0.00195       -0.42188       -0.35938        0.00000
 BRILLOUIN|    70           0.00195       -0.42188       -0.32812        0.00000
 BRILLOUIN|    71           0.00195       -0.42188       -0.29688        0.00000
 BRILLOUIN|    72           0.00195       -0.42188       -0.26562        0.00000
 BRILLOUIN|    73           0.00195       -0.42188       -0.23438        0.00000
 BRILLOUIN|    74           0.00195       -0.42188       -0.20312        0.00000
 BRILLOUIN|    75           0.00195       -0.42188       -0.17188        0.00000
 BRILLOUIN|    76           0.00195       -0.42188       -0.14062        0.00000
 BRILLOUIN|    77           0.00195       -0.42188       -0.10938        0.00000
 BRILLOUIN|    78           0.00195       -0.42188       -0.07812        0.00000
 BRILLOUIN|    79           0.00195       -0.42188       -0.04688        0.00000
 BRILLOUIN|    80           0.00195       -0.42188       -0.01562        0.00000
 BRILLOUIN|    81           0.00195       -0.42188        0.01562        0.00000
 BRILLOUIN|    82           0.00195       -0.42188        0.04688        0.00000
 BRILLOUIN|    83           0.00195       -0.42188        0.07812        0.00000
 BRILLOUIN|    84           0.00195       -0.42188        0.10938        0.00000
 BRILLOUIN|    85           0.00195       -0.42188        0.14062        0.00000
 BRILLOUIN|    86           0.00195       -0.42188        0.17188        0.00000
 BRILLOUIN|    87           0.00195       -0.42188        0.20312        0.00000
 BRILLOUIN|    88           0.00195       -0.42188        0.23438        0.00000
 BRILLOUIN|    89           0.00195       -0.42188        0.26562        0.00000
 BRILLOUIN|    90           0.00195       -0.42188        0.29688        0.00000
 BRILLOUIN|    91           0.00195       -0.42188        0.32812        0.00000
 BRILLOUIN|    92           0.00195       -0.42188        0.35938        0.00000
 BRILLOUIN|    93           0.00195       -0.42188        0.39062        0.00000
 BRILLOUIN|    94           0.00195       -0.42188        0.42188        0.00000
 BRILLOUIN|    95           0.00195       -0.42188        0.45312        0.00000
 BRILLOUIN|    96           0.00195       -0.42188        0.48438        0.00000
 BRILLOUIN|    97           0.00195       -0.39062       -0.48438        0.00000
 BRILLOUIN|    98           0.00195       -0.39062       -0.45312        0.00000
 BRILLOUIN|    99           0.00195       -0.39062       -0.42188        0.00000
 BRILLOUIN|   100           0.00195       -0.39062       -0.39062        0.00000
 BRILLOUIN|   101           0.00195       -0.39062       -0.35938        0.00000
 BRILLOUIN|   102           0.00195       -0.39062       -0.32812        0.00000
 BRILLOUIN|   103           0.00195       -0.39062       -0.29688        0.00000
 BRILLOUIN|   104           0.00195       -0.39062       -0.26562        0.00000
 BRILLOUIN|   105           0.00195       -0.39062       -0.23438        0.00000
 BRILLOUIN|   106           0.00195       -0.39062       -0.20312        0.00000
 BRILLOUIN|   107           0.00195       -0.39062       -0.17188        0.00000
 BRILLOUIN|   108           0.00195       -0.39062       -0.14062        0.00000
 BRILLOUIN|   109           0.00195       -0.39062       -0.10938        0.00000
 BRILLOUIN|   110           0.00195       -0.39062       -0.07812        0.00000
 BRILLOUIN|   111           0.00195       -0.39062       -0.04688        0.00000
 BRILLOUIN|   112           0.00195       -0.39062       -0.01562        0.00000
 BRILLOUIN|   113           0.00195       -0.39062        0.01562        0.00000
 BRILLOUIN|   114           0.00195       -0.39062        0.04688        0.00000
 BRILLOUIN|   115           0.00195       -0.39062        0.07812        0.00000
 BRILLOUIN|   116           0.00195       -0.39062        0.10938        0.00000
 BRILLOUIN|   117           0.00195       -0.39062        0.14062        0.00000
 BRILLOUIN|   118           0.00195       -0.39062        0.17188        0.00000
 BRILLOUIN|   119           0.00195       -0.39062        0.20312        0.00000
 BRILLOUIN|   120           0.00195       -0.39062        0.23438        0.00000
 BRILLOUIN|   121           0.00195       -0.39062        0.26562        0.00000
 BRILLOUIN|   122           0.00195       -0.39062        0.29688        0.00000
 BRILLOUIN|   123           0.00195       -0.39062        0.32812        0.00000
 BRILLOUIN|   124           0.00195       -0.39062        0.35938        0.00000
 BRILLOUIN|   125           0.00195       -0.39062        0.39062        0.00000
 BRILLOUIN|   126           0.00195       -0.39062        0.42188        0.00000
 BRILLOUIN|   127           0.00195       -0.39062        0.45312        0.00000
 BRILLOUIN|   128           0.00195       -0.39062        0.48438        0.00000
 BRILLOUIN|   129           0.00195       -0.35938       -0.48438        0.00000
 BRILLOUIN|   130           0.00195       -0.35938       -0.45312        0.00000
 BRILLOUIN|   131           0.00195       -0.35938       -0.42188        0.00000
 BRILLOUIN|   132           0.00195       -0.35938       -0.39062        0.00000
 BRILLOUIN|   133           0.00195       -0.35938       -0.35938        0.00000
 BRILLOUIN|   134           0.00195       -0.35938       -0.32812        0.00000
 BRILLOUIN|   135           0.00195       -0.35938       -0.29688        0.00000
 BRILLOUIN|   136           0.00195       -0.35938       -0.26562        0.00000
 BRILLOUIN|   137           0.00195       -0.35938       -0.23438        0.00000
 BRILLOUIN|   138           0.00195       -0.35938       -0.20312        0.00000
 BRILLOUIN|   139           0.00195       -0.35938       -0.17188        0.00000
 BRILLOUIN|   140           0.00195       -0.35938       -0.14062        0.00000
 BRILLOUIN|   141           0.00195       -0.35938       -0.10938        0.00000
 BRILLOUIN|   142           0.00195       -0.35938       -0.07812        0.00000
 BRILLOUIN|   143           0.00195       -0.35938       -0.04688        0.00000
 BRILLOUIN|   144           0.00195       -0.35938       -0.01562        0.00000
 BRILLOUIN|   145           0.00195       -0.35938        0.01562        0.00000
 BRILLOUIN|   146           0.00195       -0.35938        0.04688        0.00000
 BRILLOUIN|   147           0.00195       -0.35938        0.07812        0.00000
 BRILLOUIN|   148           0.00195       -0.35938        0.10938        0.00000
 BRILLOUIN|   149           0.00195       -0.35938        0.14062        0.00000
 BRILLOUIN|   150           0.00195       -0.35938        0.17188        0.00000
 BRILLOUIN|   151           0.00195       -0.35938        0.20312        0.00000
 BRILLOUIN|   152           0.00195       -0.35938        0.23438        0.00000
 BRILLOUIN|   153           0.00195       -0.35938        0.26562        0.00000
 BRILLOUIN|   154           0.00195       -0.35938        0.29688        0.00000
 BRILLOUIN|   155           0.00195       -0.35938        0.32812        0.00000
 BRILLOUIN|   156           0.00195       -0.35938        0.35938        0.00000
 BRILLOUIN|   157           0.00195       -0.35938        0.39062        0.00000
 BRILLOUIN|   158           0.00195       -0.35938        0.42188        0.00000
 BRILLOUIN|   159           0.00195       -0.35938        0.45312        0.00000
 BRILLOUIN|   160           0.00195       -0.35938        0.48438        0.00000
 BRILLOUIN|   161           0.00195       -0.32812       -0.48438        0.00000
 BRILLOUIN|   162           0.00195       -0.32812       -0.45312        0.00000
 BRILLOUIN|   163           0.00195       -0.32812       -0.42188        0.00000
 BRILLOUIN|   164           0.00195       -0.32812       -0.39062        0.00000
 BRILLOUIN|   165           0.00195       -0.32812       -0.35938        0.00000
 BRILLOUIN|   166           0.00195       -0.32812       -0.32812        0.00000
 BRILLOUIN|   167           0.00195       -0.32812       -0.29688        0.00000
 BRILLOUIN|   168           0.00195       -0.32812       -0.26562        0.00000
 BRILLOUIN|   169           0.00195       -0.32812       -0.23438        0.00000
 BRILLOUIN|   170           0.00195       -0.32812       -0.20312        0.00000
 BRILLOUIN|   171           0.00195       -0.32812       -0.17188        0.00000
 BRILLOUIN|   172           0.00195       -0.32812       -0.14062        0.00000
 BRILLOUIN|   173           0.00195       -0.32812       -0.10938        0.00000
 BRILLOUIN|   174           0.00195       -0.32812       -0.07812        0.00000
 BRILLOUIN|   175           0.00195       -0.32812       -0.04688        0.00000
 BRILLOUIN|   176           0.00195       -0.32812       -0.01562        0.00000
 BRILLOUIN|   177           0.00195       -0.32812        0.01562        0.00000
 BRILLOUIN|   178           0.00195       -0.32812        0.04688        0.00000
 BRILLOUIN|   179           0.00195       -0.32812        0.07812        0.00000
 BRILLOUIN|   180           0.00195       -0.32812        0.10938        0.00000
 BRILLOUIN|   181           0.00195       -0.32812        0.14062        0.00000
 BRILLOUIN|   182           0.00195       -0.32812        0.17188        0.00000
 BRILLOUIN|   183           0.00195       -0.32812        0.20312        0.00000
 BRILLOUIN|   184           0.00195       -0.32812        0.23438        0.00000
 BRILLOUIN|   185           0.00195       -0.32812        0.26562        0.00000
 BRILLOUIN|   186           0.00195       -0.32812        0.29688        0.00000
 BRILLOUIN|   187           0.00195       -0.32812        0.32812        0.00000
 BRILLOUIN|   188           0.00195       -0.32812        0.35938        0.00000
 BRILLOUIN|   189           0.00195       -0.32812        0.39062        0.00000
 BRILLOUIN|   190           0.00195       -0.32812        0.42188        0.00000
 BRILLOUIN|   191           0.00195       -0.32812        0.45312        0.00000
 BRILLOUIN|   192           0.00195       -0.32812        0.48438        0.00000
 BRILLOUIN|   193           0.00195       -0.29688       -0.48438        0.00000
 BRILLOUIN|   194           0.00195       -0.29688       -0.45312        0.00000
 BRILLOUIN|   195           0.00195       -0.29688       -0.42188        0.00000
 BRILLOUIN|   196           0.00195       -0.29688       -0.39062        0.00000
 BRILLOUIN|   197           0.00195       -0.29688       -0.35938        0.00000
 BRILLOUIN|   198           0.00195       -0.29688       -0.32812        0.00000
 BRILLOUIN|   199           0.00195       -0.29688       -0.29688        0.00000
 BRILLOUIN|   200           0.00195       -0.29688       -0.26562        0.00000
 BRILLOUIN|   201           0.00195       -0.29688       -0.23438        0.00000
 BRILLOUIN|   202           0.00195       -0.29688       -0.20312        0.00000
 BRILLOUIN|   203           0.00195       -0.29688       -0.17188        0.00000
 BRILLOUIN|   204           0.00195       -0.29688       -0.14062        0.00000
 BRILLOUIN|   205           0.00195       -0.29688       -0.10938        0.00000
 BRILLOUIN|   206           0.00195       -0.29688       -0.07812        0.00000
 BRILLOUIN|   207           0.00195       -0.29688       -0.04688        0.00000
 BRILLOUIN|   208           0.00195       -0.29688       -0.01562        0.00000
 BRILLOUIN|   209           0.00195       -0.29688        0.01562        0.00000
 BRILLOUIN|   210           0.00195       -0.29688        0.04688        0.00000
 BRILLOUIN|   211           0.00195       -0.29688        0.07812        0.00000
 BRILLOUIN|   212           0.00195       -0.29688        0.10938        0.00000
 BRILLOUIN|   213           0.00195       -0.29688        0.14062        0.00000
 BRILLOUIN|   214           0.00195       -0.29688        0.17188        0.00000
 BRILLOUIN|   215           0.00195       -0.29688        0.20312        0.00000
 BRILLOUIN|   216           0.00195       -0.29688        0.23438        0.00000
 BRILLOUIN|   217           0.00195       -0.29688        0.26562        0.00000
 BRILLOUIN|   218           0.00195       -0.29688        0.29688        0.00000
 BRILLOUIN|   219           0.00195       -0.29688        0.32812        0.00000
 BRILLOUIN|   220           0.00195       -0.29688        0.35938        0.00000
 BRILLOUIN|   221           0.00195       -0.29688        0.39062        0.00000
 BRILLOUIN|   222           0.00195       -0.29688        0.42188        0.00000
 BRILLOUIN|   223           0.00195       -0.29688        0.45312        0.00000
 BRILLOUIN|   224           0.00195       -0.29688        0.48438        0.00000
 BRILLOUIN|   225           0.00195       -0.26562       -0.48438        0.00000
 BRILLOUIN|   226           0.00195       -0.26562       -0.45312        0.00000
 BRILLOUIN|   227           0.00195       -0.26562       -0.42188        0.00000
 BRILLOUIN|   228           0.00195       -0.26562       -0.39062        0.00000
 BRILLOUIN|   229           0.00195       -0.26562       -0.35938        0.00000
 BRILLOUIN|   230           0.00195       -0.26562       -0.32812        0.00000
 BRILLOUIN|   231           0.00195       -0.26562       -0.29688        0.00000
 BRILLOUIN|   232           0.00195       -0.26562       -0.26562        0.00000
 BRILLOUIN|   233           0.00195       -0.26562       -0.23438        0.00000
 BRILLOUIN|   234           0.00195       -0.26562       -0.20312        0.00000
 BRILLOUIN|   235           0.00195       -0.26562       -0.17188        0.00000
 BRILLOUIN|   236           0.00195       -0.26562       -0.14062        0.00000
 BRILLOUIN|   237           0.00195       -0.26562       -0.10938        0.00000
 BRILLOUIN|   238           0.00195       -0.26562       -0.07812        0.00000
 BRILLOUIN|   239           0.00195       -0.26562       -0.04688        0.00000
 BRILLOUIN|   240           0.00195       -0.26562       -0.01562        0.00000
 BRILLOUIN|   241           0.00195       -0.26562        0.01562        0.00000
 BRILLOUIN|   242           0.00195       -0.26562        0.04688        0.00000
 BRILLOUIN|   243           0.00195       -0.26562        0.07812        0.00000
 BRILLOUIN|   244           0.00195       -0.26562        0.10938        0.00000
 BRILLOUIN|   245           0.00195       -0.26562        0.14062        0.00000
 BRILLOUIN|   246           0.00195       -0.26562        0.17188        0.00000
 BRILLOUIN|   247           0.00195       -0.26562        0.20312        0.00000
 BRILLOUIN|   248           0.00195       -0.26562        0.23438        0.00000
 BRILLOUIN|   249           0.00195       -0.26562        0.26562        0.00000
 BRILLOUIN|   250           0.00195       -0.26562        0.29688        0.00000
 BRILLOUIN|   251           0.00195       -0.26562        0.32812        0.00000
 BRILLOUIN|   252           0.00195       -0.26562        0.35938        0.00000
 BRILLOUIN|   253           0.00195       -0.26562        0.39062        0.00000
 BRILLOUIN|   254           0.00195       -0.26562        0.42188        0.00000
 BRILLOUIN|   255           0.00195       -0.26562        0.45312        0.00000
 BRILLOUIN|   256           0.00195       -0.26562        0.48438        0.00000
 BRILLOUIN|   257           0.00195       -0.23438       -0.48438        0.00000
 BRILLOUIN|   258           0.00195       -0.23438       -0.45312        0.00000
 BRILLOUIN|   259           0.00195       -0.23438       -0.42188        0.00000
 BRILLOUIN|   260           0.00195       -0.23438       -0.39062        0.00000
 BRILLOUIN|   261           0.00195       -0.23438       -0.35938        0.00000
 BRILLOUIN|   262           0.00195       -0.23438       -0.32812        0.00000
 BRILLOUIN|   263           0.00195       -0.23438       -0.29688        0.00000
 BRILLOUIN|   264           0.00195       -0.23438       -0.26562        0.00000
 BRILLOUIN|   265           0.00195       -0.23438       -0.23438        0.00000
 BRILLOUIN|   266           0.00195       -0.23438       -0.20312        0.00000
 BRILLOUIN|   267           0.00195       -0.23438       -0.17188        0.00000
 BRILLOUIN|   268           0.00195       -0.23438       -0.14062        0.00000
 BRILLOUIN|   269           0.00195       -0.23438       -0.10938        0.00000
 BRILLOUIN|   270           0.00195       -0.23438       -0.07812        0.00000
 BRILLOUIN|   271           0.00195       -0.23438       -0.04688        0.00000
 BRILLOUIN|   272           0.00195       -0.23438       -0.01562        0.00000
 BRILLOUIN|   273           0.00195       -0.23438        0.01562        0.00000
 BRILLOUIN|   274           0.00195       -0.23438        0.04688        0.00000
 BRILLOUIN|   275           0.00195       -0.23438        0.07812        0.00000
 BRILLOUIN|   276           0.00195       -0.23438        0.10938        0.00000
 BRILLOUIN|   277           0.00195       -0.23438        0.14062        0.00000
 BRILLOUIN|   278           0.00195       -0.23438        0.17188        0.00000
 BRILLOUIN|   279           0.00195       -0.23438        0.20312        0.00000
 BRILLOUIN|   280           0.00195       -0.23438        0.23438        0.00000
 BRILLOUIN|   281           0.00195       -0.23438        0.26562        0.00000
 BRILLOUIN|   282           0.00195       -0.23438        0.29688        0.00000
 BRILLOUIN|   283           0.00195       -0.23438        0.32812        0.00000
 BRILLOUIN|   284           0.00195       -0.23438        0.35938        0.00000
 BRILLOUIN|   285           0.00195       -0.23438        0.39062        0.00000
 BRILLOUIN|   286           0.00195       -0.23438        0.42188        0.00000
 BRILLOUIN|   287           0.00195       -0.23438        0.45312        0.00000
 BRILLOUIN|   288           0.00195       -0.23438        0.48438        0.00000
 BRILLOUIN|   289           0.00195       -0.20312       -0.48438        0.00000
 BRILLOUIN|   290           0.00195       -0.20312       -0.45312        0.00000
 BRILLOUIN|   291           0.00195       -0.20312       -0.42188        0.00000
 BRILLOUIN|   292           0.00195       -0.20312       -0.39062        0.00000
 BRILLOUIN|   293           0.00195       -0.20312       -0.35938        0.00000
 BRILLOUIN|   294           0.00195       -0.20312       -0.32812        0.00000
 BRILLOUIN|   295           0.00195       -0.20312       -0.29688        0.00000
 BRILLOUIN|   296           0.00195       -0.20312       -0.26562        0.00000
 BRILLOUIN|   297           0.00195       -0.20312       -0.23438        0.00000
 BRILLOUIN|   298           0.00195       -0.20312       -0.20312        0.00000
 BRILLOUIN|   299           0.00195       -0.20312       -0.17188        0.00000
 BRILLOUIN|   300           0.00195       -0.20312       -0.14062        0.00000
 BRILLOUIN|   301           0.00195       -0.20312       -0.10938        0.00000
 BRILLOUIN|   302           0.00195       -0.20312       -0.07812        0.00000
 BRILLOUIN|   303           0.00195       -0.20312       -0.04688        0.00000
 BRILLOUIN|   304           0.00195       -0.20312       -0.01562        0.00000
 BRILLOUIN|   305           0.00195       -0.20312        0.01562        0.00000
 BRILLOUIN|   306           0.00195       -0.20312        0.04688        0.00000
 BRILLOUIN|   307           0.00195       -0.20312        0.07812        0.00000
 BRILLOUIN|   308           0.00195       -0.20312        0.10938        0.00000
 BRILLOUIN|   309           0.00195       -0.20312        0.14062        0.00000
 BRILLOUIN|   310           0.00195       -0.20312        0.17188        0.00000
 BRILLOUIN|   311           0.00195       -0.20312        0.20312        0.00000
 BRILLOUIN|   312           0.00195       -0.20312        0.23438        0.00000
 BRILLOUIN|   313           0.00195       -0.20312        0.26562        0.00000
 BRILLOUIN|   314           0.00195       -0.20312        0.29688        0.00000
 BRILLOUIN|   315           0.00195       -0.20312        0.32812        0.00000
 BRILLOUIN|   316           0.00195       -0.20312        0.35938        0.00000
 BRILLOUIN|   317           0.00195       -0.20312        0.39062        0.00000
 BRILLOUIN|   318           0.00195       -0.20312        0.42188        0.00000
 BRILLOUIN|   319           0.00195       -0.20312        0.45312        0.00000
 BRILLOUIN|   320           0.00195       -0.20312        0.48438        0.00000
 BRILLOUIN|   321           0.00195       -0.17188       -0.48438        0.00000
 BRILLOUIN|   322           0.00195       -0.17188       -0.45312        0.00000
 BRILLOUIN|   323           0.00195       -0.17188       -0.42188        0.00000
 BRILLOUIN|   324           0.00195       -0.17188       -0.39062        0.00000
 BRILLOUIN|   325           0.00195       -0.17188       -0.35938        0.00000
 BRILLOUIN|   326           0.00195       -0.17188       -0.32812        0.00000
 BRILLOUIN|   327           0.00195       -0.17188       -0.29688        0.00000
 BRILLOUIN|   328           0.00195       -0.17188       -0.26562        0.00000
 BRILLOUIN|   329           0.00195       -0.17188       -0.23438        0.00000
 BRILLOUIN|   330           0.00195       -0.17188       -0.20312        0.00000
 BRILLOUIN|   331           0.00195       -0.17188       -0.17188        0.00000
 BRILLOUIN|   332           0.00195       -0.17188       -0.14062        0.00000
 BRILLOUIN|   333           0.00195       -0.17188       -0.10938        0.00000
 BRILLOUIN|   334           0.00195       -0.17188       -0.07812        0.00000
 BRILLOUIN|   335           0.00195       -0.17188       -0.04688        0.00000
 BRILLOUIN|   336           0.00195       -0.17188       -0.01562        0.00000
 BRILLOUIN|   337           0.00195       -0.17188        0.01562        0.00000
 BRILLOUIN|   338           0.00195       -0.17188        0.04688        0.00000
 BRILLOUIN|   339           0.00195       -0.17188        0.07812        0.00000
 BRILLOUIN|   340           0.00195       -0.17188        0.10938        0.00000
 BRILLOUIN|   341           0.00195       -0.17188        0.14062        0.00000
 BRILLOUIN|   342           0.00195       -0.17188        0.17188        0.00000
 BRILLOUIN|   343           0.00195       -0.17188        0.20312        0.00000
 BRILLOUIN|   344           0.00195       -0.17188        0.23438        0.00000
 BRILLOUIN|   345           0.00195       -0.17188        0.26562        0.00000
 BRILLOUIN|   346           0.00195       -0.17188        0.29688        0.00000
 BRILLOUIN|   347           0.00195       -0.17188        0.32812        0.00000
 BRILLOUIN|   348           0.00195       -0.17188        0.35938        0.00000
 BRILLOUIN|   349           0.00195       -0.17188        0.39062        0.00000
 BRILLOUIN|   350           0.00195       -0.17188        0.42188        0.00000
 BRILLOUIN|   351           0.00195       -0.17188        0.45312        0.00000
 BRILLOUIN|   352           0.00195       -0.17188        0.48438        0.00000
 BRILLOUIN|   353           0.00195       -0.14062       -0.48438        0.00000
 BRILLOUIN|   354           0.00195       -0.14062       -0.45312        0.00000
 BRILLOUIN|   355           0.00195       -0.14062       -0.42188        0.00000
 BRILLOUIN|   356           0.00195       -0.14062       -0.39062        0.00000
 BRILLOUIN|   357           0.00195       -0.14062       -0.35938        0.00000
 BRILLOUIN|   358           0.00195       -0.14062       -0.32812        0.00000
 BRILLOUIN|   359           0.00195       -0.14062       -0.29688        0.00000
 BRILLOUIN|   360           0.00195       -0.14062       -0.26562        0.00000
 BRILLOUIN|   361           0.00195       -0.14062       -0.23438        0.00000
 BRILLOUIN|   362           0.00195       -0.14062       -0.20312        0.00000
 BRILLOUIN|   363           0.00195       -0.14062       -0.17188        0.00000
 BRILLOUIN|   364           0.00195       -0.14062       -0.14062        0.00000
 BRILLOUIN|   365           0.00195       -0.14062       -0.10938        0.00000
 BRILLOUIN|   366           0.00195       -0.14062       -0.07812        0.00000
 BRILLOUIN|   367           0.00195       -0.14062       -0.04688        0.00000
 BRILLOUIN|   368           0.00195       -0.14062       -0.01562        0.00000
 BRILLOUIN|   369           0.00195       -0.14062        0.01562        0.00000
 BRILLOUIN|   370           0.00195       -0.14062        0.04688        0.00000
 BRILLOUIN|   371           0.00195       -0.14062        0.07812        0.00000
 BRILLOUIN|   372           0.00195       -0.14062        0.10938        0.00000
 BRILLOUIN|   373           0.00195       -0.14062        0.14062        0.00000
 BRILLOUIN|   374           0.00195       -0.14062        0.17188        0.00000
 BRILLOUIN|   375           0.00195       -0.14062        0.20312        0.00000
 BRILLOUIN|   376           0.00195       -0.14062        0.23438        0.00000
 BRILLOUIN|   377           0.00195       -0.14062        0.26562        0.00000
 BRILLOUIN|   378           0.00195       -0.14062        0.29688        0.00000
 BRILLOUIN|   379           0.00195       -0.14062        0.32812        0.00000
 BRILLOUIN|   380           0.00195       -0.14062        0.35938        0.00000
 BRILLOUIN|   381           0.00195       -0.14062        0.39062        0.00000
 BRILLOUIN|   382           0.00195       -0.14062        0.42188        0.00000
 BRILLOUIN|   383           0.00195       -0.14062        0.45312        0.00000
 BRILLOUIN|   384           0.00195       -0.14062        0.48438        0.00000
 BRILLOUIN|   385           0.00195       -0.10938       -0.48438        0.00000
 BRILLOUIN|   386           0.00195       -0.10938       -0.45312        0.00000
 BRILLOUIN|   387           0.00195       -0.10938       -0.42188        0.00000
 BRILLOUIN|   388           0.00195       -0.10938       -0.39062        0.00000
 BRILLOUIN|   389           0.00195       -0.10938       -0.35938        0.00000
 BRILLOUIN|   390           0.00195       -0.10938       -0.32812        0.00000
 BRILLOUIN|   391           0.00195       -0.10938       -0.29688        0.00000
 BRILLOUIN|   392           0.00195       -0.10938       -0.26562        0.00000
 BRILLOUIN|   393           0.00195       -0.10938       -0.23438        0.00000
 BRILLOUIN|   394           0.00195       -0.10938       -0.20312        0.00000
 BRILLOUIN|   395           0.00195       -0.10938       -0.17188        0.00000
 BRILLOUIN|   396           0.00195       -0.10938       -0.14062        0.00000
 BRILLOUIN|   397           0.00195       -0.10938       -0.10938        0.00000
 BRILLOUIN|   398           0.00195       -0.10938       -0.07812        0.00000
 BRILLOUIN|   399           0.00195       -0.10938       -0.04688        0.00000
 BRILLOUIN|   400           0.00195       -0.10938       -0.01562        0.00000
 BRILLOUIN|   401           0.00195       -0.10938        0.01562        0.00000
 BRILLOUIN|   402           0.00195       -0.10938        0.04688        0.00000
 BRILLOUIN|   403           0.00195       -0.10938        0.07812        0.00000
 BRILLOUIN|   404           0.00195       -0.10938        0.10938        0.00000
 BRILLOUIN|   405           0.00195       -0.10938        0.14062        0.00000
 BRILLOUIN|   406           0.00195       -0.10938        0.17188        0.00000
 BRILLOUIN|   407           0.00195       -0.10938        0.20312        0.00000
 BRILLOUIN|   408           0.00195       -0.10938        0.23438        0.00000
 BRILLOUIN|   409           0.00195       -0.10938        0.26562        0.00000
 BRILLOUIN|   410           0.00195       -0.10938        0.29688        0.00000
 BRILLOUIN|   411           0.00195       -0.10938        0.32812        0.00000
 BRILLOUIN|   412           0.00195       -0.10938        0.35938        0.00000
 BRILLOUIN|   413           0.00195       -0.10938        0.39062        0.00000
 BRILLOUIN|   414           0.00195       -0.10938        0.42188        0.00000
 BRILLOUIN|   415           0.00195       -0.10938        0.45312        0.00000
 BRILLOUIN|   416           0.00195       -0.10938        0.48438        0.00000
 BRILLOUIN|   417           0.00195       -0.07812       -0.48438        0.00000
 BRILLOUIN|   418           0.00195       -0.07812       -0.45312        0.00000
 BRILLOUIN|   419           0.00195       -0.07812       -0.42188        0.00000
 BRILLOUIN|   420           0.00195       -0.07812       -0.39062        0.00000
 BRILLOUIN|   421           0.00195       -0.07812       -0.35938        0.00000
 BRILLOUIN|   422           0.00195       -0.07812       -0.32812        0.00000
 BRILLOUIN|   423           0.00195       -0.07812       -0.29688        0.00000
 BRILLOUIN|   424           0.00195       -0.07812       -0.26562        0.00000
 BRILLOUIN|   425           0.00195       -0.07812       -0.23438        0.00000
 BRILLOUIN|   426           0.00195       -0.07812       -0.20312        0.00000
 BRILLOUIN|   427           0.00195       -0.07812       -0.17188        0.00000
 BRILLOUIN|   428           0.00195       -0.07812       -0.14062        0.00000
 BRILLOUIN|   429           0.00195       -0.07812       -0.10938        0.00000
 BRILLOUIN|   430           0.00195       -0.07812       -0.07812        0.00000
 BRILLOUIN|   431           0.00195       -0.07812       -0.04688        0.00000
 BRILLOUIN|   432           0.00195       -0.07812       -0.01562        0.00000
 BRILLOUIN|   433           0.00195       -0.07812        0.01562        0.00000
 BRILLOUIN|   434           0.00195       -0.07812        0.04688        0.00000
 BRILLOUIN|   435           0.00195       -0.07812        0.07812        0.00000
 BRILLOUIN|   436           0.00195       -0.07812        0.10938        0.00000
 BRILLOUIN|   437           0.00195       -0.07812        0.14062        0.00000
 BRILLOUIN|   438           0.00195       -0.07812        0.17188        0.00000
 BRILLOUIN|   439           0.00195       -0.07812        0.20312        0.00000
 BRILLOUIN|   440           0.00195       -0.07812        0.23438        0.00000
 BRILLOUIN|   441           0.00195       -0.07812        0.26562        0.00000
 BRILLOUIN|   442           0.00195       -0.07812        0.29688        0.00000
 BRILLOUIN|   443           0.00195       -0.07812        0.32812        0.00000
 BRILLOUIN|   444           0.00195       -0.07812        0.35938        0.00000
 BRILLOUIN|   445           0.00195       -0.07812        0.39062        0.00000
 BRILLOUIN|   446           0.00195       -0.07812        0.42188        0.00000
 BRILLOUIN|   447           0.00195       -0.07812        0.45312        0.00000
 BRILLOUIN|   448           0.00195       -0.07812        0.48438        0.00000
 BRILLOUIN|   449           0.00195       -0.04688       -0.48438        0.00000
 BRILLOUIN|   450           0.00195       -0.04688       -0.45312        0.00000
 BRILLOUIN|   451           0.00195       -0.04688       -0.42188        0.00000
 BRILLOUIN|   452           0.00195       -0.04688       -0.39062        0.00000
 BRILLOUIN|   453           0.00195       -0.04688       -0.35938        0.00000
 BRILLOUIN|   454           0.00195       -0.04688       -0.32812        0.00000
 BRILLOUIN|   455           0.00195       -0.04688       -0.29688        0.00000
 BRILLOUIN|   456           0.00195       -0.04688       -0.26562        0.00000
 BRILLOUIN|   457           0.00195       -0.04688       -0.23438        0.00000
 BRILLOUIN|   458           0.00195       -0.04688       -0.20312        0.00000
 BRILLOUIN|   459           0.00195       -0.04688       -0.17188        0.00000
 BRILLOUIN|   460           0.00195       -0.04688       -0.14062        0.00000
 BRILLOUIN|   461           0.00195       -0.04688       -0.10938        0.00000
 BRILLOUIN|   462           0.00195       -0.04688       -0.07812        0.00000
 BRILLOUIN|   463           0.00195       -0.04688       -0.04688        0.00000
 BRILLOUIN|   464           0.00195       -0.04688       -0.01562        0.00000
 BRILLOUIN|   465           0.00195       -0.04688        0.01562        0.00000
 BRILLOUIN|   466           0.00195       -0.04688        0.04688        0.00000
 BRILLOUIN|   467           0.00195       -0.04688        0.07812        0.00000
 BRILLOUIN|   468           0.00195       -0.04688        0.10938        0.00000
 BRILLOUIN|   469           0.00195       -0.04688        0.14062        0.00000
 BRILLOUIN|   470           0.00195       -0.04688        0.17188        0.00000
 BRILLOUIN|   471           0.00195       -0.04688        0.20312        0.00000
 BRILLOUIN|   472           0.00195       -0.04688        0.23438        0.00000
 BRILLOUIN|   473           0.00195       -0.04688        0.26562        0.00000
 BRILLOUIN|   474           0.00195       -0.04688        0.29688        0.00000
 BRILLOUIN|   475           0.00195       -0.04688        0.32812        0.00000
 BRILLOUIN|   476           0.00195       -0.04688        0.35938        0.00000
 BRILLOUIN|   477           0.00195       -0.04688        0.39062        0.00000
 BRILLOUIN|   478           0.00195       -0.04688        0.42188        0.00000
 BRILLOUIN|   479           0.00195       -0.04688        0.45312        0.00000
 BRILLOUIN|   480           0.00195       -0.04688        0.48438        0.00000
 BRILLOUIN|   481           0.00195       -0.01562       -0.48438        0.00000
 BRILLOUIN|   482           0.00195       -0.01562       -0.45312        0.00000
 BRILLOUIN|   483           0.00195       -0.01562       -0.42188        0.00000
 BRILLOUIN|   484           0.00195       -0.01562       -0.39062        0.00000
 BRILLOUIN|   485           0.00195       -0.01562       -0.35938        0.00000
 BRILLOUIN|   486           0.00195       -0.01562       -0.32812        0.00000
 BRILLOUIN|   487           0.00195       -0.01562       -0.29688        0.00000
 BRILLOUIN|   488           0.00195       -0.01562       -0.26562        0.00000
 BRILLOUIN|   489           0.00195       -0.01562       -0.23438        0.00000
 BRILLOUIN|   490           0.00195       -0.01562       -0.20312        0.00000
 BRILLOUIN|   491           0.00195       -0.01562       -0.17188        0.00000
 BRILLOUIN|   492           0.00195       -0.01562       -0.14062        0.00000
 BRILLOUIN|   493           0.00195       -0.01562       -0.10938        0.00000
 BRILLOUIN|   494           0.00195       -0.01562       -0.07812        0.00000
 BRILLOUIN|   495           0.00195       -0.01562       -0.04688        0.00000
 BRILLOUIN|   496           0.00195       -0.01562       -0.01562        0.00000
 BRILLOUIN|   497           0.00195       -0.01562        0.01562        0.00000
 BRILLOUIN|   498           0.00195       -0.01562        0.04688        0.00000
 BRILLOUIN|   499           0.00195       -0.01562        0.07812        0.00000
 BRILLOUIN|   500           0.00195       -0.01562        0.10938        0.00000
 BRILLOUIN|   501           0.00195       -0.01562        0.14062        0.00000
 BRILLOUIN|   502           0.00195       -0.01562        0.17188        0.00000
 BRILLOUIN|   503           0.00195       -0.01562        0.20312        0.00000
 BRILLOUIN|   504           0.00195       -0.01562        0.23438        0.00000
 BRILLOUIN|   505           0.00195       -0.01562        0.26562        0.00000
 BRILLOUIN|   506           0.00195       -0.01562        0.29688        0.00000
 BRILLOUIN|   507           0.00195       -0.01562        0.32812        0.00000
 BRILLOUIN|   508           0.00195       -0.01562        0.35938        0.00000
 BRILLOUIN|   509           0.00195       -0.01562        0.39062        0.00000
 BRILLOUIN|   510           0.00195       -0.01562        0.42188        0.00000
 BRILLOUIN|   511           0.00195       -0.01562        0.45312        0.00000
 BRILLOUIN|   512           0.00195       -0.01562        0.48438        0.00000
 *******************************************************************************

 *******************************************************************************
 *******************************************************************************
 **                                                                           **
 **     #####                         ##              ##                      **
 **    ##   ##            ##          ##              ##                      **
 **   ##     ##                       ##            ######                    **
 **   ##     ##  ##   ##  ##   #####  ##  ##   ####   ##    #####    #####    **
 **   ##     ##  ##   ##  ##  ##      ## ##   ##      ##   ##   ##  ##   ##   **
 **   ##  ## ##  ##   ##  ##  ##      ####     ###    ##   ######   ######    **
 **    ##  ###   ##   ##  ##  ##      ## ##      ##   ##   ##       ##        **
 **     #######   #####   ##   #####  ##  ##  ####    ##    #####   ##        **
 **           ##                                                    ##        **
 **                                                                           **
 **                                                ... make the atoms dance   **
 **                                                                           **
 **            Copyright (C) by CP2K developers group (2000-2025)             **
 **                      J. Chem. Phys. 152, 194103 (2020)                    **
 **                                                                           **
 *******************************************************************************

 DFT| Spin restricted Kohn-Sham (RKS) calculation                            RKS
 DFT| Multiplicity                                                             1
 DFT| Number of spin states                                                    1
 DFT| Charge                                                                   0
 DFT| Self-interaction correction (SIC)                                       NO
 DFT| Cutoffs: density                                              1.000000E-10
 DFT|          gradient                                             1.000000E-10
 DFT|          tau                                                  1.000000E-10
 DFT|          cutoff_smoothing_range                               0.000000E+00
 DFT| XC density smoothing                                                  NONE
 DFT| XC derivatives                                                          PW

 FUNCTIONAL| PBE:
 FUNCTIONAL| J.P.Perdew, K.Burke, M.Ernzerhof, Phys. Rev. Letter, vol. 77, n 18,
 FUNCTIONAL|  pp. 3865-3868, (1996) {spin unpolarized}                          


 QS| Method:                                                                GAPW
 QS| Density plane wave grid type                        NON-SPHERICAL FULLSPACE
 QS| Number of grid levels:                                                    4
 QS| Density cutoff [a.u.]:                                                250.0
 QS| Multi grid cutoff [a.u.]: 1) grid level                               250.0
 QS|                           2) grid level                                83.3
 QS|                           3) grid level                                27.8
 QS|                           4) grid level                                 9.3
 QS| Grid level progression factor:                                          3.0
 QS| Relative density cutoff [a.u.]:                                        50.0
 QS| Interaction thresholds: eps_pgf_orb:                                1.0E-12
 QS|                         eps_filter_matrix:                          0.0E+00
 QS|                         eps_core_charge:                            1.0E-14
 QS|                         eps_rho_gspace:                             1.0E-12
 QS|                         eps_rho_rspace:                             1.0E-12
 QS|                         eps_gvg_rspace:                             1.0E-06
 QS|                         eps_ppl:                                    1.0E-02
 QS|                         eps_ppnl:                                   1.0E-08
 QS| GAPW|      One center basis from orbital basis primitives
 QS| GAPW|                   eps_fit:                                    1.0E-04
 QS| GAPW|                   eps_iso:                                    1.0E-12
 QS| GAPW|                   eps_svd:                                    1.0E-08
 QS| GAPW|                   eps_cpc:                                    1.0E-12
 QS| GAPW|   atom-r-grid: quadrature:                                     GC_LOG
 QS| GAPW|      atom-s-grid:  max l :                                          4
 QS| GAPW|      max_l_rho0 :                                                   2
 QS| GAPW|      At least one kind is NOT PAW, i.e. it has only soft AO 
 QS| GAPW|      The NOT PAW atoms are treated fully GPW


 ATOMIC KIND INFORMATION

  1. Atomic kind: Mo                                    Number of atoms:       1

     Orbital Basis Set                                         SZV-MOLOPT-SR-GTH

       Number of orbital shell sets:                                           1
       Number of orbital shells:                                               4
       Number of primitive Cartesian functions:                                7
       Number of Cartesian basis functions:                                   11
       Number of spherical basis functions:                                   10
       Norm type:                                                              2

       Normalised Cartesian orbitals:

                        Set   Shell   Orbital            Exponent    Coefficient

                          1       1    2s                2.540273      -1.291313
                                                         1.999996       0.475974
                                                         0.894040       0.689563
                                                         0.439257       0.078864
                                                         0.189498       0.027372
                                                         0.083802      -0.010762
                                                         0.052949       0.001981

                          1       2    3s                2.540273       0.199824
                                                         1.999996      -0.186721
                                                         0.894040       0.125661
                                                         0.439257       0.016258
                                                         0.189498      -0.028997
                                                         0.083802      -0.064725
                                                         0.052949      -0.030340

                          1       3    3px               2.540273       2.808959
                                                         1.999996      -2.548088
                                                         0.894040      -0.605502
                                                         0.439257      -0.180857
                                                         0.189498      -0.006020
                                                         0.083802      -0.000118
                                                         0.052949       0.000064
                          1       3    3py               2.540273       2.808959
                                                         1.999996      -2.548088
                                                         0.894040      -0.605502
                                                         0.439257      -0.180857
                                                         0.189498      -0.006020
                                                         0.083802      -0.000118
                                                         0.052949       0.000064
                          1       3    3pz               2.540273       2.808959
                                                         1.999996      -2.548088
                                                         0.894040      -0.605502
                                                         0.439257      -0.180857
                                                         0.189498      -0.006020
                                                         0.083802      -0.000118
                                                         0.052949       0.000064

                          1       4    4dx2              2.540273      -1.655644
                                                         1.999996       2.115795
                                                         0.894040       0.370223
                                                         0.439257       0.160904
                                                         0.189498       0.023725
                                                         0.083802       0.001356
                                                         0.052949       0.000173
                          1       4    4dxy              2.540273      -2.867659
                                                         1.999996       3.664665
                                                         0.894040       0.641246
                                                         0.439257       0.278693
                                                         0.189498       0.041094
                                                         0.083802       0.002348
                                                         0.052949       0.000300
                          1       4    4dxz              2.540273      -2.867659
                                                         1.999996       3.664665
                                                         0.894040       0.641246
                                                         0.439257       0.278693
                                                         0.189498       0.041094
                                                         0.083802       0.002348
                                                         0.052949       0.000300
                          1       4    4dy2              2.540273      -1.655644
                                                         1.999996       2.115795
                                                         0.894040       0.370223
                                                         0.439257       0.160904
                                                         0.189498       0.023725
                                                         0.083802       0.001356
                                                         0.052949       0.000173
                          1       4    4dyz              2.540273      -2.867659
                                                         1.999996       3.664665
                                                         0.894040       0.641246
                                                         0.439257       0.278693
                                                         0.189498       0.041094
                                                         0.083802       0.002348
                                                         0.052949       0.000300
                          1       4    4dz2              2.540273      -1.655644
                                                         1.999996       2.115795
                                                         0.894040       0.370223
                                                         0.439257       0.160904
                                                         0.189498       0.023725
                                                         0.083802       0.001356
                                                         0.052949       0.000173

     RI Auxiliary Basis Set             RI_aug-SZV-MOLOPT-GTH-tier-2_N_RI_072_s_

       Number of orbital shell sets:                                          18
       Number of orbital shells:                                              18
       Number of primitive Cartesian functions:                               18
       Number of Cartesian basis functions:                                  100
       Number of spherical basis functions:                                   72
       Norm type:                                                              2

       Normalised Cartesian orbitals:

                        Set   Shell   Orbital            Exponent    Coefficient

                          1       1    1s                0.082504       0.109715

                          2       1   14fx3              0.117891       0.011989
                          2       1   14fx2y             0.117891       0.026809
                          2       1   14fx2z             0.117891       0.026809
                          2       1   14fxy2             0.117891       0.026809
                          2       1   14fxyz             0.117891       0.046434
                          2       1   14fxz2             0.117891       0.026809
                          2       1   14fy3              0.117891       0.011989
                          2       1   14fy2z             0.117891       0.026809
                          2       1   14fyz2             0.117891       0.026809
                          2       1   14fz3              0.117891       0.011989

                          3       1   11dx2              0.131598       0.047325
                          3       1   11dxy              0.131598       0.081970
                          3       1   11dxz              0.131598       0.081970
                          3       1   11dy2              0.131598       0.047325
                          3       1   11dyz              0.131598       0.081970
                          3       1   11dz2              0.131598       0.047325

                          4       1    2s                0.158996       0.179453

                          5       1    8px               0.201798       0.192790
                          5       1    8py               0.201798       0.192790
                          5       1    8pz               0.201798       0.192790

                          6       1    3s                0.306700       0.293728

                          7       1   12dx2              0.564390       0.604886
                          7       1   12dxy              0.564390       1.047694
                          7       1   12dxz              0.564390       1.047694
                          7       1   12dy2              0.564390       0.604886
                          7       1   12dyz              0.564390       1.047694
                          7       1   12dz2              0.564390       0.604886

                          8       1    4s                0.590708       0.480220

                          9       1   15fx3              0.709356       0.679829
                          9       1   15fx2y             0.709356       1.520144
                          9       1   15fx2z             0.709356       1.520144
                          9       1   15fxy2             0.709356       1.520144
                          9       1   15fxyz             0.709356       2.632966
                          9       1   15fxz2             0.709356       1.520144
                          9       1   15fy3              0.709356       0.679829
                          9       1   15fy2z             0.709356       1.520144
                          9       1   15fyz2             0.709356       1.520144
                          9       1   15fz3              0.709356       0.679829

                         10       1   18hx5              1.057604       0.890010
                         10       1   18hx4y             1.057604       2.670029
                         10       1   18hx4z             1.057604       2.670029
                         10       1   18hx3y2            1.057604       4.078537
                         10       1   18hx3yz            1.057604       7.064233
                         10       1   18hx3z2            1.057604       4.078537
                         10       1   18hx2y3            1.057604       4.078537
                         10       1   18hx2y2z           1.057604       9.119885
                         10       1   18hx2yz2           1.057604       9.119885
                         10       1   18hx2z3            1.057604       4.078537
                         10       1   18hxy4             1.057604       2.670029
                         10       1   18hxy3z            1.057604       7.064233
                         10       1   18hxy2z2           1.057604       9.119885
                         10       1   18hxyz3            1.057604       7.064233
                         10       1   18hxz4             1.057604       2.670029
                         10       1   18hy5              1.057604       0.890010
                         10       1   18hy4z             1.057604       2.670029
                         10       1   18hy3z2            1.057604       4.078537
                         10       1   18hy2z3            1.057604       4.078537
                         10       1   18hyz4             1.057604       2.670029
                         10       1   18hz5              1.057604       0.890010

                         11       1    5s                1.134305       0.783353

                         12       1    9px               1.330289       2.036445
                         12       1    9py               1.330289       2.036445
                         12       1    9pz               1.330289       2.036445

                         13       1   13dx2              1.402926       2.976599
                         13       1   13dxy              1.402926       5.155620
                         13       1   13dxz              1.402926       5.155620
                         13       1   13dy2              1.402926       2.976599
                         13       1   13dyz              1.402926       5.155620
                         13       1   13dz2              1.402926       2.976599

                         14       1   16fx3              1.722871       5.006375
                         14       1   16fx2y             1.722871      11.194594
                         14       1   16fx2z             1.722871      11.194594
                         14       1   16fxy2             1.722871      11.194594
                         14       1   16fxyz             1.722871      19.389605
                         14       1   16fxz2             1.722871      11.194594
                         14       1   16fy3              1.722871       5.006375
                         14       1   16fy2z             1.722871      11.194594
                         14       1   16fyz2             1.722871      11.194594
                         14       1   16fz3              1.722871       5.006375

                         15       1   17gx4              2.109173       8.664505
                         15       1   17gx3y             2.109173      22.924126
                         15       1   17gx3z             2.109173      22.924126
                         15       1   17gx2y2            2.109173      29.594919
                         15       1   17gx2yz            2.109173      51.259903
                         15       1   17gx2z2            2.109173      29.594919
                         15       1   17gxy3             2.109173      22.924126
                         15       1   17gxy2z            2.109173      51.259903
                         15       1   17gxyz2            2.109173      51.259903
                         15       1   17gxz3             2.109173      22.924126
                         15       1   17gy4              2.109173       8.664505
                         15       1   17gy3z             2.109173      22.924126
                         15       1   17gy2z2            2.109173      29.594919
                         15       1   17gyz3             2.109173      22.924126
                         15       1   17gz4              2.109173       8.664505

                         16       1    6s                2.186453       1.281490

                         17       1   10px               3.806405       7.578509
                         17       1   10py               3.806405       7.578509
                         17       1   10pz               3.806405       7.578509

                         18       1    7s                4.226756       2.100949

       Atomic covalent radius [Angstrom]:                                  1.300

       Atomic van der Waals radius [Angstrom]:                             1.670

     GTH Potential information for                                   GTH-PBE-q14

       Description:                       Goedecker-Teter-Hutter pseudopotential
                                           Goedecker et al., PRB 54, 1703 (1996)
                                          Hartwigsen et al., PRB 58, 3641 (1998)
                                                      Krack, TCA 114, 145 (2005)

       Gaussian exponent of the core charge distribution:               2.704164
       Electronic configuration (s p d ...):                           3   6   5

       Parameters of the local part of the GTH pseudopotential:

                          rloc        C1          C2          C3          C4
                        0.430000   28.609368   -4.721803

       Parameters of the non-local part of the GTH (SOC) pseudopotential:

                   l      r(l)      h(i,j,l)
                                    k(i,j,l)
                   0    0.345216    0.146303    2.762005
                                    2.762005   -3.565733
                   1    0.416888   -0.190785   -0.728744
                                   -0.728744    0.862262
                                    0.101036    0.157628
                                    0.157628   -0.186508
                   2    0.420508    1.216814   -2.686463
                                   -2.686463    3.046162
                                    0.001360    0.022739
                                    0.022739   -0.025783

  2. Atomic kind: Se                                    Number of atoms:       2

     Orbital Basis Set                                         SZV-MOLOPT-SR-GTH

       Number of orbital shell sets:                                           1
       Number of orbital shells:                                               2
       Number of primitive Cartesian functions:                                4
       Number of Cartesian basis functions:                                    4
       Number of spherical basis functions:                                    4
       Norm type:                                                              2

       Normalised Cartesian orbitals:

                        Set   Shell   Orbital            Exponent    Coefficient

                          1       1    2s                1.465689       0.426298
                                                         1.029752      -0.111246
                                                         0.303575      -0.265065
                                                         0.107173      -0.034327

                          1       2    3px               1.465689       0.672773
                                                         1.029752      -0.499569
                                                         0.303575      -0.202949
                                                         0.107173      -0.032222
                          1       2    3py               1.465689       0.672773
                                                         1.029752      -0.499569
                                                         0.303575      -0.202949
                                                         0.107173      -0.032222
                          1       2    3pz               1.465689       0.672773
                                                         1.029752      -0.499569
                                                         0.303575      -0.202949
                                                         0.107173      -0.032222

     RI Auxiliary Basis Set             RI_aug-SZV-MOLOPT-GTH-tier-2_N_RI_028_s_

       Number of orbital shell sets:                                          10
       Number of orbital shells:                                              10
       Number of primitive Cartesian functions:                               10
       Number of Cartesian basis functions:                                   33
       Number of spherical basis functions:                                   28
       Norm type:                                                              2

       Normalised Cartesian orbitals:

                        Set   Shell   Orbital            Exponent    Coefficient

                          1       1    1s                0.207146       0.218835

                          2       1    8dx2              0.256453       0.152115
                          2       1    8dxy              0.256453       0.263472
                          2       1    8dxz              0.256453       0.263472
                          2       1    8dy2              0.256453       0.152115
                          2       1    8dyz              0.256453       0.263472
                          2       1    8dz2              0.256453       0.152115

                          3       1    6px               0.318238       0.340706
                          3       1    6py               0.318238       0.340706
                          3       1    6pz               0.318238       0.340706

                          4       1    2s                0.375428       0.341826

                          5       1   10fx3              0.382712       0.169596
                          5       1   10fx2y             0.382712       0.379229
                          5       1   10fx2z             0.382712       0.379229
                          5       1   10fxy2             0.382712       0.379229
                          5       1   10fxyz             0.382712       0.656844
                          5       1   10fxz2             0.382712       0.379229
                          5       1   10fy3              0.382712       0.169596
                          5       1   10fy2z             0.382712       0.379229
                          5       1   10fyz2             0.382712       0.379229
                          5       1   10fz3              0.382712       0.169596

[...]
 mp_sync                        ******* 12.0  676.484  938.022  676.484  938.022
 dbt_contract                   1925399 10.3    9.298   13.568  634.129  917.437
 compute_chi                          1  7.0    0.014    0.047  869.355  869.579
 dbt_tas_multiply               1786220 12.9    1.084    1.645  573.695  841.946
 dbt_tas_total                  1786220 13.9   45.962   68.634  573.004  840.947
 copy_dbcsr_to_fm                286757  8.0    1.547    1.684  834.994  836.658
 scf_env_do_scf                       1  3.0    0.001    0.003  811.453  811.468
 scf_env_do_scf_inner_loop           74  4.0    0.010    0.015  811.452  811.468
 dbcsr_complete_redistribute     508774  9.6    9.957   13.954  758.940  805.284
 qs_scf_new_mos_kp                   74  5.0    0.000    0.001  800.215  800.278
 do_general_diag_kp                  74  6.0    0.362    0.388  800.215  800.278
 dbcsr_desymmetrize_deep         452373  8.3    4.604    5.486  661.944  663.510
 mp_alltoall_d11v               2883441 10.4  538.987  540.923  538.987  540.923
 mp_alltoall_i11v               1978695 10.3  525.366  525.470  525.366  525.470
 G_occ_vir                          121  8.0    0.268    0.301  507.205  508.995
 fm_to_local_tensor              146072  9.0    2.426    2.719  412.080  412.100
 copy_fm_to_dbcsr                222017  9.3    0.505    0.530  350.062  396.560
 parallel_gemm_cfm               280952  8.9    0.160    0.183  354.732  360.577
 parallel_gemm_cfm_cosma         280952  9.9  354.572  360.418  354.572  360.418
 local_dbt_to_global_fm              91  8.0    0.147    0.158  332.406  332.411
 contract_to_Sigma                   85  8.0    7.373    8.697  229.903  331.457
 dbt_tas_estimate_result_nze     893110 13.4   22.972   35.296  221.698  324.638
 contract_M_occ_vir_to_chi           47  8.0   13.467   15.657  143.988  300.654
 mp_alltoall_i22                 961147 10.0  248.121  294.342  248.121  294.342
 contract_W                          45  8.0    2.482    3.258  230.457  262.834
 hybrid_alltoall_any             452373  9.3    1.264    1.301  248.892  249.607
 dbt_tas_dbm                    1786220 14.9    0.966    1.347  150.182  236.877
 dbm_multiply                   1786220 16.9  148.127  233.909  148.127  233.909
 add_V_L                         327680 10.0    3.385  217.989    3.385  217.989
 compute_QP_energies                  1  7.0    0.061    0.098  210.310  210.359
 trafo_to_k_and_nn                71492  8.0    0.206    0.246  210.150  210.194
 reshape_mm_small               1786220 14.9   74.782  108.437  138.676  194.352
 G_times_3c                       11638  8.0    2.802    3.604  154.129  190.871
 contract_to_Sigma_3c_x_G        364319  9.0    0.364    0.448  145.406  183.407
 global_matrix_to_local_matrix   146072 10.0    2.200    2.880  142.527  160.546
 contract_to_Sigma_contract       10373  9.0    2.377    2.783   74.662  138.705
 kpoint_density_transform            74  7.0    0.113    0.117  131.227  131.236
 dbt_tas_mm_2                    714224 15.9    0.317    0.687   57.958  126.887
 get_V_tr_R                          34  9.0    0.081    0.088  124.771  124.845
 fm_MWM_R_t_to_local_tensor_W_R      30  8.0    0.020    0.023  118.812  118.820
 mult_W_with_Minv                    30  8.0    0.382    0.400  117.901  117.942
 fm_to_local_array                  934  8.1   31.238   32.962  115.050  115.360
 dbt_tas_create_split           5362841 15.8    2.179    3.209   77.200  112.409
 dbt_copy                       2989245 10.8    8.236   11.402   80.075  111.256
 dbt_tas_create_split_rows_or_c 5362841 16.8    7.879   11.901   75.021  109.243
 mp_sum_dm                       655433 10.0   97.554  109.211   97.554  109.211
 reshape_mm_compatible          1786220 14.9   10.268   15.421   70.820  101.700
 mp_waitall_1                   1593830 11.1   76.943   96.457   76.943   96.457
 send_data                       146072 11.0    0.092    0.103   75.963   94.422
 communicate_buffer              146072 12.0    1.573   18.457   75.871   94.323
 mp_sum_dm3                        1069  9.0   82.660   85.990   82.660   85.990
 dbt_tas_distribution_new       4432182 15.4   31.205   42.046   59.948   81.077
 add_rs_to_ikp                  *******  9.9   73.272   77.190   73.272   77.190
 mp_cart_create                 9046818 16.1   58.575   71.164   62.065   75.987
 dbt_tas_mm_3T                   668920 16.0    0.322    0.402   61.140   75.193
 dbt_reshape                    1885856 11.7   36.539   50.241   51.148   70.113
 trafo_rs_to_ikp                   5368  8.1    1.994    2.262   65.802   69.807
 change_split                   2395536 15.3    3.357    5.158   45.423   68.797
 add_ikp_to_rs                  ******* 10.0   63.692   68.283   63.692   68.283
 local_dbt_to_global_mat          87451  9.0    0.299    0.318   55.974   66.493
 cp_fm_start_copy_general        227328  7.3    0.957    1.718   63.361   63.486
 dbt_tas_reshape                2070014 15.4    6.822    9.348   46.189   60.331
 rsmat_to_kp                       7032  7.2    0.050    0.052   58.405   58.505
 mp_allgather_i                  454656  8.3   56.103   56.693   56.103   56.693
 fm_add_ikp_to_rs                123904  9.0   35.622   37.201   52.296   54.374
 add_ikp_to_all_rs                 4924  8.0    1.779    2.133   48.810   53.645
 compute_Sigma_x                      1  7.0    0.002    0.002   53.457   53.516
 dbt_tas_replicate              1786220 14.9   19.499   24.376   39.941   52.338
 get_t_3c_int                   1365382  9.3    2.817    3.643   41.116   51.354
 mp_sum_i                       1648504 15.4   48.408   48.762   48.408   48.762
 send_sizes_1                    146072 11.0    0.084    0.100   48.097   48.481
 mp_cart_sub                     573593 10.0   45.382   45.482   45.382   45.482
 dbt_remap                       142863 11.0   12.270   23.590   32.982   42.946
 create_and_init_bs_env_for_gw        1  6.0    0.005    0.008   41.664   41.671
 dos_pdos_ldos                        1  5.0    0.004    0.005   38.955   39.065
 dbt_tas_mm_1N                   403076 15.5    0.170    0.219   29.913   36.416
 mp_comm_dup                    4469735 18.3   22.724   33.493   24.299   35.715
 get_data                        146072 11.0    4.768   31.812    4.982   32.054
 fm_trafo_rs_to_ikp               71492  9.0   20.851   21.907   30.314   31.501
 SOC_ev                            2344  6.0    0.012    0.015   31.286   31.368
 soc                                  1  5.0    0.000    0.000   29.540   29.540
 H_KS_spinor_kp                       1  6.0    0.007    0.008   29.524   29.527
 power                            10204  8.0    1.870    2.025   26.917   28.010
 create_and_init_bs_env               1  5.0    0.000    0.001   27.149   27.154
 compute_cfm_mo_coeff_kp_and_ei       1  6.0    0.002    0.003   27.139   27.139
 convert_to_new_pgrid           5358660 14.9    6.920   10.404   17.951   26.749
 diag_complex                     10204  9.0   25.047   26.043   25.047   26.043
 dbt_tas_reserve_blocks_index   7023682 15.5    3.493    4.746   18.680   26.007
 dbm_reserve_blocks             8809902 16.4   18.227   25.735   18.227   25.735
 mp_comm_free                   ******* 15.1   18.364   25.628   18.364   25.628
 local_matrix_to_global_matrix    87451 10.0    0.163    0.173   14.155   25.188
 mp_comm_split_direct           5362845 17.8   15.760   22.756   16.881   24.354
 dbcsr_finalize                 1940403 10.9    3.681    4.267   19.269   23.512
 mp_sum_dv                        78751  8.9   17.368   22.284   17.368   22.284
 dbt_permute_index              4423289 12.0   13.128   18.557   14.919   21.172
 cp_cfm_heevd                      4836  7.5    0.003    0.004   20.961   21.127
 cp_cfm_heevd_base                 4836  8.5   20.957   21.124   20.957   21.124
 dbt_tas_reshape_buffer_fill    2070014 16.4   16.577   20.825   16.577   20.825
 dbt_tas_reshape_buffer_obtain  2070014 16.4    9.837   13.272   15.179   20.376
 compute_3c_integrals                 1  7.0    0.059    0.069   20.055   20.060
 build_3c_integrals                   1  8.0   17.741   18.722   18.738   19.692
 dbt_tas_create_new             6823538 15.1   12.533   18.227   12.533   18.227
 dbt_destroy                    8849857 10.0   14.229   17.012   15.287   18.118
 dbt_distribution_new_expert     577880 12.0    2.844    3.101   16.665   17.956
 dbt_tas_merge                   714224 14.9    5.747   13.210    7.735   17.658
 dbt_create_3c_R1_R2                 62  8.0    3.466    3.897   15.992   16.976
 dbm_copy                       3572440 15.9   11.031   16.822   11.031   16.822
 add_R                          *******  9.3   10.426   11.714   14.887   16.449
 dbt_create_matrix               146072 10.0    0.832    0.870   14.858   15.889
 mp_alltoall_i                  7861472 14.8   14.345   15.639   14.345   15.639
 destroy_t_2d                        62  8.0    3.542    4.350   13.324   15.537
 dbt_align_index                2679330 11.4    1.766    2.592   10.570   15.503
 reshape_mm_template             285726 15.5    8.640    9.816   13.142   14.821
 dbt_create_template            4138594  9.0   13.172   14.013   13.172   14.013
 dbt_tas_reserve_blocks_templat 2621491 14.0    3.161    4.353    9.713   13.219
 get_Minv_Vtr_Minv_R                  1  8.0    0.017    0.019   12.730   12.744
 trafo_V_xc_R_to_kp                   1  7.0    0.004    0.004   12.665   12.668
 dbt_reserve_blocks_index_array 2153974 12.7    1.035    1.453    8.367   12.619
 dbt_reserve_blocks_index       2332177 13.5    1.466    1.977    8.604   12.485
 dbt_tas_mp_comm                1035007 13.0    1.062    1.496    8.948   12.444
 dbcsr_merge_all                 733921 11.7    7.475    9.782   10.018   12.439
 dbt_tas_copy                    953668 12.2    6.125    7.478   10.064   12.387
 dbcsr_filter_anytype            659143 11.0    1.505    1.574    7.955   11.749
 dbt_create_new                  288940 11.5    1.791    1.948    8.882    9.612
 set_blocks                       87451 11.0    1.965    4.785    4.048    9.259
 mp_cart_get                    ******* 15.8    6.292    9.115    6.292    9.115
 dbt_copy_nocomm                 268118 11.0    2.452    5.815    3.753    8.801
 is_cell_in_index_to_cell       *******  9.7    7.891    8.527    7.891    8.527
 dbt_communicate_buffer         1885856 12.7    5.994    8.446    5.994    8.446
 mp_comm_size                   ******* 16.0    5.674    8.137    5.674    8.137
 dbm_add                        1786220 14.9    5.719    8.069    5.719    8.069
 send_sizes_2                    146072 11.0    0.080    0.088    7.530    7.888
 compute_proj_mo_on_kind           1172  6.0    0.013    0.016    7.431    7.524
 mp_isend_dv                    ******* 12.1    0.376    7.079    0.376    7.079
 cp_cfm_geeig_canon                1172  7.0    0.004    0.005    6.959    6.965
 mp_isend_im2                   ******* 12.9    0.246    6.633    0.246    6.633
 mp_comm_rank                   ******* 16.0    4.357    6.440    4.357    6.440
 dbt_pgrid_create_expert         577883 13.0    0.624    0.713    5.359    6.353
 dbm_filter                     2848247 14.6    4.055    6.265    4.055    6.265
 rskp_transform                   82808  7.1    0.120    5.974    0.120    5.974
 comm_data                        87451 11.0    0.177    1.139    1.425    5.859
 heuristic_RI_regularization          1  7.0    0.000    0.001    5.746    5.747
 dbt_tas_communicate_buffer     3856234 17.2    3.539    5.417    3.539    5.417
 comm_size                        87451 11.0    0.076    0.086    4.963    5.304
 dbcsr_work_create              1186294 10.2    3.148    3.718    4.532    5.201
 dbt_nd_mp_comm                  288935 11.5    0.369    0.402    4.181    5.161
 dbcsr_create_new               1669255  9.8    3.665    4.166    4.573    5.073
 qs_ks_update_qs_env                 74  5.0    0.000    0.000    4.702    4.754
 dbcsr_iterator_start           4227492 10.8    3.789    3.887    4.555    4.688
 mp_bcast_iv                     909494  8.3    4.321    4.583    4.321    4.583
 qs_ks_build_kohn_sham_matrix        77  7.0    0.020    0.027    4.336    4.390
 dbt_tas_reshape_communicate_bu 2070014 16.4    0.845    1.320    3.115    4.381
 rebuild_ks_matrix                   74  6.0    0.000    0.000    4.176    4.227
 mp_waitall_2                    174902 12.0    1.181    4.171    1.181    4.171
 dbt_create_2c_R                     98  8.0    2.422    3.762    2.731    4.066
 dbm_scale                      2781520 13.8    2.672    4.059    2.672    4.059
 mp_sum_l                       ******* 14.9    2.546    3.866    2.546    3.866
 build_2c_integrals                  34 10.0    0.057    1.932    0.359    3.814
 dbcsr_work_destroy_all         1186294 11.1    2.201    2.603    3.170    3.757
 copy_fm_to_dbcsr_bc             222017 10.3    1.020    1.058    3.604    3.755
 sum_up_and_integrate                77  8.0    0.003    0.008    0.727    3.611
 integrate_v_rspace                  77  9.0    0.003    0.011    0.724    3.609
 transfer_pw2rs                     386 10.6    0.002    0.003    3.535    3.603
 fill_buffer                      87451 11.0    2.389    3.417    2.515    3.549
 dbt_tas_reshape_get_coord      2070014 16.4    2.470    3.435    2.470    3.435
 transfer_pw2rs_250                 155 11.0    0.126    0.144    3.326    3.401
 dbcsr_data_release             ******* 11.7    2.891    3.285    2.891    3.285
 transfer_rs2pw                     379  8.4    0.002    0.003    3.184    3.282
 qs_rho_update_rho_low               75  5.0    0.001    0.001    3.186    3.190
 calculate_rho_elec                  75  6.0    0.002    0.003    3.184    3.186
 integrate_vhg0_rspace               77  8.0    0.001    0.004    3.090    3.154
 transfer_rs2pw_250                 154 10.0    0.138    0.162    3.021    3.143
 mp_sendrecv_dv                   96645 10.4    3.003    3.112    3.003    3.112
 dbt_reserve_blocks_template     268118 12.0    0.231    0.545    1.302    2.986
 density_rs2pw                       75  7.0    0.001    0.002    2.883    2.935
 grid_integrate_task_list            77 10.0    0.024    2.905    0.024    2.905
 dbcsr_iterator_stop            4227492 10.8    2.176    2.289    2.713    2.821
 dbcsr_data_new                 ******* 11.1    2.590    2.779    2.590    2.779
 transform_dmat                   37888  8.0    0.050    2.710    0.050    2.710
 dbcsr_destroy                  1555778  9.6    1.323    1.376    2.582    2.710
 grid_collocate_task_list            75  7.0    0.295    2.626    0.295    2.626
 dbt_copy_matrix_to_tensor       146072 10.0    0.825    0.880    2.488    2.553
 reserve_blocks                  146072 11.0    0.349    0.374    2.239    2.418
 write_kpoints_restart               74  5.0    0.003    0.236    2.345    2.379
 dbt_tas_replicate_communicate_ 1071996 15.8    0.518    0.654    1.467    2.126
 dbt_tas_reshape_alltoall       2070014 16.4    0.780    1.143    1.463    2.038
 mp_bcast_im                     454656  8.3    1.701    1.935    1.701    1.935
 tree_to_linear_d                594676 12.6    1.548    1.724    1.548    1.724
 mp_bcast_i                     5363344 17.8    1.088    1.686    1.088    1.686
 dbcsr_reserve_blocks            592539 12.2    0.950    1.359    1.202    1.679
 dbt_distribution_destroy        577880 12.0    1.182    1.314    1.486    1.631
 copy_dbcsr_to_fm_bc             286757  9.0    0.711    0.762    1.524    1.571
 ab_contract                    2409912 11.0    0.017    1.546    0.017    1.546
 mp_dims_create                 4432179 14.0    1.027    1.532    1.027    1.532
 mp_cart_rank                   4288832 15.8    1.231    1.514    1.231    1.514
 dbcsr_set                      1577029 10.4    0.748    0.791    1.327    1.502
 get_coord                        87451 11.0    0.609    0.935    1.042    1.494
 quick_finalize                  452373 10.3    0.660    0.855    1.082    1.457
 write_SOC_eigenvalues              148  6.0    0.006    1.424    0.006    1.424
 setup_parallelization_Delta_R        1  7.0    0.000    0.000    1.370    1.372
 compute_n_tensor_ops_Delta_R         1  8.0    0.295    0.608    1.366    1.366
 dbt_reserve_blocks_matrix_to_t  146072 11.0    0.398    0.421    1.325    1.365
 mp_sum_iv                         2368  9.0    0.773    1.339    0.773    1.339
 analyt_conti_and_print            1172  8.0    0.007    1.276    0.063    1.330
 dbt_tas_merge_communicate_buff  714224 15.9    0.196    0.416    0.517    1.283
 dbcsr_copy                      189422 10.0    0.373    0.548    0.913    1.096
 dbcsr_reserve_all_blocks        309468 11.5    0.246    0.265    0.812    1.087
 compute_V_xc                         1  7.0    0.001    0.007    1.041    1.043
 fill_mat_local                  146072 11.0    0.780    0.870    0.953    1.043
 dbt_copy_tensor_to_matrix        87451 10.0    0.295    0.381    0.918    1.041
 mp_max_i                       3851261 11.3    0.681    1.014    0.681    1.014
 dbt_tas_replicate_alltoall     1071996 15.8    0.442    0.554    0.759    0.963
 dbt_buffer_get_index           3856234 16.7    0.673    0.959    0.673    0.959
 dbcsr_iterator_seek            4227492 11.8    0.766    0.900    0.766    0.900
 dbcsr_distribution_new          508813 10.0    0.672    0.845    0.672    0.845
 create_qs_kind_set                   1  2.0    0.000    0.002    0.742    0.777
 read_qs_kind                         2  3.0    0.385    0.431    0.741    0.777
 alloc_block_3c                       1  9.0    0.161    0.167    0.742    0.769
 dbcsr_zero                     1577029 11.4    0.579    0.758    0.579    0.758
 dbt_tas_merge_alltoall          714224 15.9    0.202    0.422    0.361    0.756
 add_cfm_submat                   11720  7.0    0.044    0.048    0.532    0.733
 external_control                    74  5.0    0.003    0.715    0.718    0.718
 mp_bcast_b_src                      74  6.0    0.715    0.718    0.715    0.718
 potential_pw2rs                     77 10.0    0.001    0.001    0.698    0.704
 dbcsr_sort_indices             1198419 12.6    0.358    0.698    0.358    0.698
 cp_fm_to_fm_submat               23440  8.0    0.472    0.673    0.472    0.673
 add_to_DOS_PDOS                   4688  6.5    0.641    0.651    0.641    0.651
 dbcsr_make_index_exist         1669255 10.8    0.576    0.623    0.576    0.623
 mp_irecv_im2                   2956178 12.9    0.228    0.587    0.228    0.587
 setup_cells_3c                       1  7.0    0.017    0.017    0.579    0.584
 fft_wrap_pw1pw2                   1443 10.1    0.005    0.005    0.553    0.580
 build_3c_integral_block           2477  8.0    0.208    0.417    0.549    0.561
 mp_sum_d                         26283  8.8    0.513    0.548    0.513    0.548
 dbcsr_dot                        25013  8.0    0.044    0.051    0.530    0.547
 get_sizes                       146072 11.0    0.354    0.384    0.516    0.546
 dbcsr_copy_into_existing         75945 10.0    0.204    0.307    0.419    0.532
 evaluate_core_matrix_traces         74  6.0    0.000    0.000    0.525    0.527
 calculate_ptrace_kp                148  7.0    0.008    0.010    0.525    0.526
 -------------------------------------------------------------------------------

 The number of warnings for this run is : 1
 
 -------------------------------------------------------------------------------
  **** **** ******  **  PROGRAM ENDED AT                 2025-07-15 12:38:47.306
 ***** ** ***  *** **   PROGRAM RAN ON                     n2cn0603.ab2021.local
 **    ****   ******    PROGRAM RAN BY                                  metdyn02
 ***** **    ** ** **   PROGRAM PROCESS ID                               3797900
  **** **  *******  **  PROGRAM STOPPED IN /scratch/hpc-prf-metdyn/metdyn02_Remi
                                           /05_TMD_new/2_MoSe2/SZVnonaug
