SIRIUS 7.5.2, git hash: https://api.github.com/repos/electronic-structure/SIRIUS/git/ref/tags/v7.5.2
 DBCSR| CPU Multiplication driver                                           XSMM (U)
 DBCSR| Multrec recursion limit                                              512 (U)
 DBCSR| Multiplication stack size                                           1000 (D)
 DBCSR| Maximum elements for images                                    UNLIMITED (U)
 DBCSR| Multiplicative factor virtual images                                   1 (U)
 DBCSR| Use multiplication densification                                       T (D)
 DBCSR| Multiplication size stacks                                             3 (U)
 DBCSR| Use memory pool for CPU allocation                                     F (U)
 DBCSR| Number of 3D layers                                               SINGLE (U)
 DBCSR| Use MPI memory allocation                                              F (U)
 DBCSR| Use RMA algorithm                                                      F (U)
 DBCSR| Use Communication thread                                               T (U)
 DBCSR| Communication thread load                                             30 (D)
 DBCSR| MPI: My process id                                                     0
 DBCSR| MPI: Number of processes                                              48
 DBCSR| OMP: Current number of threads                                        16
 DBCSR| OMP: Max number of threads                                            16
 DBCSR| Split modifier for TAS multiplication algorithm                  1.0E+00 (U)


  **** **** ******  **  PROGRAM STARTED AT               2025-03-27 13:09:11.630
 ***** ** ***  *** **   PROGRAM STARTED ON                             n2lcn0109
 **    ****   ******    PROGRAM STARTED BY                              metdyn02
 ***** **    ** ** **   PROGRAM PROCESS ID                                516280
  **** **  *******  **  PROGRAM STARTED IN /scratch/hpc-prf-metdyn/metdyn02_Remi
                                           /05_TMD_new/paperbenchmarks/regulariz
                                           ation/1e-2/9/1e-4

 CP2K| version string:                 CP2K version 2025.1 (Development Version)
 CP2K| source code revision number:                                  git:9754b87
 CP2K| cp2kflags: omp libint fftw3 libxc libgrpp elpa parallel scalapack mpi_f08
 CP2K|             cosma xsmm plumed2 spglib sirius libvori libbqb libvdwxc hdf5
 CP2K| is freely available from                            https://www.cp2k.org/
 CP2K| Program compiled at                          Sun Mar 23 00:44:01 CET 2025
 CP2K| Program compiled on                                              n2login1
 CP2K| Program compiled for                                                local
 CP2K| Data directory path    /opt/software/pc2/EB-SW/software/CP2K/2024.1-foss-
 CP2K| Input file name                                                    GW.inp

 GLOBAL| Force Environment number                                              1
 GLOBAL| Basis set file name            /scratch/hpc-prf-metdyn/metdyn02_Remi/05
 GLOBAL| Potential file name            /pc2/groups/hpc-prf-metdyn/metdyn02_Remi
 GLOBAL| MM Potential file name                                     MM_POTENTIAL
 GLOBAL| Coordinate file name                                      __STD_INPUT__
 GLOBAL| Method name                                                        CP2K
 GLOBAL| Project name                                                       WSe2
 GLOBAL| Run type                                                         ENERGY
 GLOBAL| FFT library                                                       FFTW3
 GLOBAL| Diagonalization library                                            ELPA
 GLOBAL| DGEMM library                                                      BLAS
 GLOBAL| Minimum number of eigenvectors for ELPA usage                        16
 GLOBAL| Orthonormality check for eigenvectors                          DISABLED
 GLOBAL| Matrix multiplication library                                     COSMA
 GLOBAL| All-to-all communication in single precision                          F
 GLOBAL| FFTs using library dependent lengths                                  F
 GLOBAL| Grid backend                                                       AUTO
 GLOBAL| Global print level                                               MEDIUM
 GLOBAL| MPI I/O enabled                                                       T
 GLOBAL| Total number of message passing processes                            48
 GLOBAL| Number of threads for this process                                   16
 GLOBAL| This output is from process                                           0
 GLOBAL| OpenMP stack size per thread (OMP_STACKSIZE)                    default
 GLOBAL| CPU model name                          AMD EPYC 7763 64-Core Processor
 GLOBAL| CPUID                                                              1002

 MEMORY| system memory details [Kb]
 MEMORY|                        rank 0           min           max       average
 MEMORY| MemTotal           1056622244    1056622244    1056622248    1056622246
 MEMORY| MemFree            1039581532    1030581480    1042454428    1037574938
 MEMORY| Buffers                180436         38720        217788        136020
 MEMORY| Cached                8251896       5651324      16743124      10214666
 MEMORY| Slab                  2238840       2034964       2806600       2297735
 MEMORY| SReclaimable           428684        301140        768148        443510
 MEMORY| MemLikelyFree      1048442548    1048131472    1048583152    1048369135


 *** Fundamental physical constants (SI units) ***

 *** Literature: B. J. Mohr and B. N. Taylor,
 ***             CODATA recommended values of the fundamental physical
 ***             constants: 2006, Web Version 5.1
 ***             http://physics.nist.gov/constants

 Speed of light in vacuum [m/s]                             2.99792458000000E+08
 Magnetic constant or permeability of vacuum [N/A**2]       1.25663706143592E-06
 Electric constant or permittivity of vacuum [F/m]          8.85418781762039E-12
 Planck constant (h) [J*s]                                  6.62606896000000E-34
 Planck constant (h-bar) [J*s]                              1.05457162825177E-34
 Elementary charge [C]                                      1.60217648700000E-19
 Electron mass [kg]                                         9.10938215000000E-31
 Electron g factor [ ]                                     -2.00231930436220E+00
 Proton mass [kg]                                           1.67262163700000E-27
 Fine-structure constant                                    7.29735253760000E-03
 Rydberg constant [1/m]                                     1.09737315685270E+07
 Avogadro constant [1/mol]                                  6.02214179000000E+23
 Boltzmann constant [J/K]                                   1.38065040000000E-23
 Atomic mass unit [kg]                                      1.66053878200000E-27
 Bohr radius [m]                                            5.29177208590000E-11

 *** Conversion factors ***

 [u] -> [a.u.]                                              1.82288848426455E+03
 [Angstrom] -> [Bohr] = [a.u.]                              1.88972613288564E+00
 [a.u.] = [Bohr] -> [Angstrom]                              5.29177208590000E-01
 [a.u.] -> [s]                                              2.41888432650478E-17
 [a.u.] -> [fs]                                             2.41888432650478E-02
 [a.u.] -> [J]                                              4.35974393937059E-18
 [a.u.] -> [N]                                              8.23872205491840E-08
 [a.u.] -> [K]                                              3.15774647902944E+05
 [a.u.] -> [kJ/mol]                                         2.62549961709828E+03
 [a.u.] -> [kcal/mol]                                       6.27509468713739E+02
 [a.u.] -> [Pa]                                             2.94210107994716E+13
 [a.u.] -> [bar]                                            2.94210107994716E+08
 [a.u.] -> [atm]                                            2.90362800883016E+08
 [a.u.] -> [eV]                                             2.72113838565563E+01
 [a.u.] -> [Hz]                                             6.57968392072181E+15
 [a.u.] -> [1/cm] (wave numbers)                            2.19474631370540E+05
 [a.u./Bohr**2] -> [1/cm]                                   5.14048714338585E+03
 

 CELL_TOP| Volume [angstrom^3]:                                       143.098933
 CELL_TOP| Vector a [angstrom     3.319     0.000     0.000   |a| =     3.319000
 CELL_TOP| Vector b [angstrom    -1.659     2.874     0.000   |b| =     3.319000
 CELL_TOP| Vector c [angstrom     0.000     0.000    15.000   |c| =    15.000000
 CELL_TOP| Angle (b,c), alpha [degree]:                                90.000000
 CELL_TOP| Angle (a,c), beta  [degree]:                                90.000000
 CELL_TOP| Angle (a,b), gamma [degree]:                               120.000000
 CELL_TOP| Numerically orthorhombic:                                          NO
 CELL_TOP| Periodicity                                                        XY

 GENERATE|  Preliminary Number of Bonds generated:                             0
 GENERATE|  Achieved consistency in connectivity generation.

 CELL| Volume [angstrom^3]:                                           143.098933
 CELL| Vector a [angstrom]:       3.319     0.000     0.000   |a| =     3.319000
 CELL| Vector b [angstrom]:      -1.659     2.874     0.000   |b| =     3.319000
 CELL| Vector c [angstrom]:       0.000     0.000    15.000   |c| =    15.000000
 CELL| Angle (b,c), alpha [degree]:                                    90.000000
 CELL| Angle (a,c), beta  [degree]:                                    90.000000
 CELL| Angle (a,b), gamma [degree]:                                   120.000000
 CELL| Numerically orthorhombic:                                              NO
 CELL| Periodicity                                                            XY

 CELL_REF| Volume [angstrom^3]:                                       143.098933
 CELL_REF| Vector a [angstrom     3.319     0.000     0.000   |a| =     3.319000
 CELL_REF| Vector b [angstrom    -1.659     2.874     0.000   |b| =     3.319000
 CELL_REF| Vector c [angstrom     0.000     0.000    15.000   |c| =    15.000000
 CELL_REF| Angle (b,c), alpha [degree]:                                90.000000
 CELL_REF| Angle (a,c), beta  [degree]:                                90.000000
 CELL_REF| Angle (a,b), gamma [degree]:                               120.000000
 CELL_REF| Numerically orthorhombic:                                          NO
 CELL_REF| Periodicity                                                        XY

 *******************************************************************************
                                    Kpoints
 *******************************************************************************
 BRILLOUIN| K-point scheme                                        Monkhorst-Pack
 BRILLOUIN| K-Point grid                                            32   32    1
 BRILLOUIN| Accuracy in Symmetry determination                      0.100000E-05
 BRILLOUIN| K-Point point group symmetrization                               OFF
 BRILLOUIN| Wavefunction type                                            COMPLEX
 BRILLOUIN| List of Kpoints [2 Pi/Bohr]                                      512
 BRILLOUIN| Number           Weight            X              Y              Z
 BRILLOUIN|     1           0.00195       -0.48438       -0.48438        0.00000
 BRILLOUIN|     2           0.00195       -0.48438       -0.45312        0.00000
 BRILLOUIN|     3           0.00195       -0.48438       -0.42188        0.00000
 BRILLOUIN|     4           0.00195       -0.48438       -0.39062        0.00000
 BRILLOUIN|     5           0.00195       -0.48438       -0.35938        0.00000
 BRILLOUIN|     6           0.00195       -0.48438       -0.32812        0.00000
 BRILLOUIN|     7           0.00195       -0.48438       -0.29688        0.00000
 BRILLOUIN|     8           0.00195       -0.48438       -0.26562        0.00000
 BRILLOUIN|     9           0.00195       -0.48438       -0.23438        0.00000
 BRILLOUIN|    10           0.00195       -0.48438       -0.20312        0.00000
 BRILLOUIN|    11           0.00195       -0.48438       -0.17188        0.00000
 BRILLOUIN|    12           0.00195       -0.48438       -0.14062        0.00000
 BRILLOUIN|    13           0.00195       -0.48438       -0.10938        0.00000
 BRILLOUIN|    14           0.00195       -0.48438       -0.07812        0.00000
 BRILLOUIN|    15           0.00195       -0.48438       -0.04688        0.00000
 BRILLOUIN|    16           0.00195       -0.48438       -0.01562        0.00000
 BRILLOUIN|    17           0.00195       -0.48438        0.01562        0.00000
 BRILLOUIN|    18           0.00195       -0.48438        0.04688        0.00000
 BRILLOUIN|    19           0.00195       -0.48438        0.07812        0.00000
 BRILLOUIN|    20           0.00195       -0.48438        0.10938        0.00000
 BRILLOUIN|    21           0.00195       -0.48438        0.14062        0.00000
 BRILLOUIN|    22           0.00195       -0.48438        0.17188        0.00000
 BRILLOUIN|    23           0.00195       -0.48438        0.20312        0.00000
 BRILLOUIN|    24           0.00195       -0.48438        0.23438        0.00000
 BRILLOUIN|    25           0.00195       -0.48438        0.26562        0.00000
 BRILLOUIN|    26           0.00195       -0.48438        0.29688        0.00000
 BRILLOUIN|    27           0.00195       -0.48438        0.32812        0.00000
 BRILLOUIN|    28           0.00195       -0.48438        0.35938        0.00000
 BRILLOUIN|    29           0.00195       -0.48438        0.39062        0.00000
 BRILLOUIN|    30           0.00195       -0.48438        0.42188        0.00000
 BRILLOUIN|    31           0.00195       -0.48438        0.45312        0.00000
 BRILLOUIN|    32           0.00195       -0.48438        0.48438        0.00000
 BRILLOUIN|    33           0.00195       -0.45312       -0.48438        0.00000
 BRILLOUIN|    34           0.00195       -0.45312       -0.45312        0.00000
 BRILLOUIN|    35           0.00195       -0.45312       -0.42188        0.00000
 BRILLOUIN|    36           0.00195       -0.45312       -0.39062        0.00000
 BRILLOUIN|    37           0.00195       -0.45312       -0.35938        0.00000
 BRILLOUIN|    38           0.00195       -0.45312       -0.32812        0.00000
 BRILLOUIN|    39           0.00195       -0.45312       -0.29688        0.00000
 BRILLOUIN|    40           0.00195       -0.45312       -0.26562        0.00000
 BRILLOUIN|    41           0.00195       -0.45312       -0.23438        0.00000
 BRILLOUIN|    42           0.00195       -0.45312       -0.20312        0.00000
 BRILLOUIN|    43           0.00195       -0.45312       -0.17188        0.00000
 BRILLOUIN|    44           0.00195       -0.45312       -0.14062        0.00000
 BRILLOUIN|    45           0.00195       -0.45312       -0.10938        0.00000
 BRILLOUIN|    46           0.00195       -0.45312       -0.07812        0.00000
 BRILLOUIN|    47           0.00195       -0.45312       -0.04688        0.00000
 BRILLOUIN|    48           0.00195       -0.45312       -0.01562        0.00000
 BRILLOUIN|    49           0.00195       -0.45312        0.01562        0.00000
 BRILLOUIN|    50           0.00195       -0.45312        0.04688        0.00000
 BRILLOUIN|    51           0.00195       -0.45312        0.07812        0.00000
 BRILLOUIN|    52           0.00195       -0.45312        0.10938        0.00000
 BRILLOUIN|    53           0.00195       -0.45312        0.14062        0.00000
 BRILLOUIN|    54           0.00195       -0.45312        0.17188        0.00000
 BRILLOUIN|    55           0.00195       -0.45312        0.20312        0.00000
 BRILLOUIN|    56           0.00195       -0.45312        0.23438        0.00000
 BRILLOUIN|    57           0.00195       -0.45312        0.26562        0.00000
 BRILLOUIN|    58           0.00195       -0.45312        0.29688        0.00000
 BRILLOUIN|    59           0.00195       -0.45312        0.32812        0.00000
 BRILLOUIN|    60           0.00195       -0.45312        0.35938        0.00000
 BRILLOUIN|    61           0.00195       -0.45312        0.39062        0.00000
 BRILLOUIN|    62           0.00195       -0.45312        0.42188        0.00000
 BRILLOUIN|    63           0.00195       -0.45312        0.45312        0.00000
 BRILLOUIN|    64           0.00195       -0.45312        0.48438        0.00000
 BRILLOUIN|    65           0.00195       -0.42188       -0.48438        0.00000
 BRILLOUIN|    66           0.00195       -0.42188       -0.45312        0.00000
 BRILLOUIN|    67           0.00195       -0.42188       -0.42188        0.00000
 BRILLOUIN|    68           0.00195       -0.42188       -0.39062        0.00000
 BRILLOUIN|    69           0.00195       -0.42188       -0.35938        0.00000
 BRILLOUIN|    70           0.00195       -0.42188       -0.32812        0.00000
 BRILLOUIN|    71           0.00195       -0.42188       -0.29688        0.00000
 BRILLOUIN|    72           0.00195       -0.42188       -0.26562        0.00000
 BRILLOUIN|    73           0.00195       -0.42188       -0.23438        0.00000
 BRILLOUIN|    74           0.00195       -0.42188       -0.20312        0.00000
 BRILLOUIN|    75           0.00195       -0.42188       -0.17188        0.00000
 BRILLOUIN|    76           0.00195       -0.42188       -0.14062        0.00000
 BRILLOUIN|    77           0.00195       -0.42188       -0.10938        0.00000
 BRILLOUIN|    78           0.00195       -0.42188       -0.07812        0.00000
 BRILLOUIN|    79           0.00195       -0.42188       -0.04688        0.00000
 BRILLOUIN|    80           0.00195       -0.42188       -0.01562        0.00000
 BRILLOUIN|    81           0.00195       -0.42188        0.01562        0.00000
 BRILLOUIN|    82           0.00195       -0.42188        0.04688        0.00000
 BRILLOUIN|    83           0.00195       -0.42188        0.07812        0.00000
 BRILLOUIN|    84           0.00195       -0.42188        0.10938        0.00000
 BRILLOUIN|    85           0.00195       -0.42188        0.14062        0.00000
 BRILLOUIN|    86           0.00195       -0.42188        0.17188        0.00000
 BRILLOUIN|    87           0.00195       -0.42188        0.20312        0.00000
 BRILLOUIN|    88           0.00195       -0.42188        0.23438        0.00000
 BRILLOUIN|    89           0.00195       -0.42188        0.26562        0.00000
 BRILLOUIN|    90           0.00195       -0.42188        0.29688        0.00000
 BRILLOUIN|    91           0.00195       -0.42188        0.32812        0.00000
 BRILLOUIN|    92           0.00195       -0.42188        0.35938        0.00000
 BRILLOUIN|    93           0.00195       -0.42188        0.39062        0.00000
 BRILLOUIN|    94           0.00195       -0.42188        0.42188        0.00000
 BRILLOUIN|    95           0.00195       -0.42188        0.45312        0.00000
 BRILLOUIN|    96           0.00195       -0.42188        0.48438        0.00000
 BRILLOUIN|    97           0.00195       -0.39062       -0.48438        0.00000
 BRILLOUIN|    98           0.00195       -0.39062       -0.45312        0.00000
 BRILLOUIN|    99           0.00195       -0.39062       -0.42188        0.00000
 BRILLOUIN|   100           0.00195       -0.39062       -0.39062        0.00000
 BRILLOUIN|   101           0.00195       -0.39062       -0.35938        0.00000
 BRILLOUIN|   102           0.00195       -0.39062       -0.32812        0.00000
 BRILLOUIN|   103           0.00195       -0.39062       -0.29688        0.00000
 BRILLOUIN|   104           0.00195       -0.39062       -0.26562        0.00000
 BRILLOUIN|   105           0.00195       -0.39062       -0.23438        0.00000
 BRILLOUIN|   106           0.00195       -0.39062       -0.20312        0.00000
 BRILLOUIN|   107           0.00195       -0.39062       -0.17188        0.00000
 BRILLOUIN|   108           0.00195       -0.39062       -0.14062        0.00000
 BRILLOUIN|   109           0.00195       -0.39062       -0.10938        0.00000
 BRILLOUIN|   110           0.00195       -0.39062       -0.07812        0.00000
 BRILLOUIN|   111           0.00195       -0.39062       -0.04688        0.00000
 BRILLOUIN|   112           0.00195       -0.39062       -0.01562        0.00000
 BRILLOUIN|   113           0.00195       -0.39062        0.01562        0.00000
 BRILLOUIN|   114           0.00195       -0.39062        0.04688        0.00000
 BRILLOUIN|   115           0.00195       -0.39062        0.07812        0.00000
 BRILLOUIN|   116           0.00195       -0.39062        0.10938        0.00000
 BRILLOUIN|   117           0.00195       -0.39062        0.14062        0.00000
 BRILLOUIN|   118           0.00195       -0.39062        0.17188        0.00000
 BRILLOUIN|   119           0.00195       -0.39062        0.20312        0.00000
 BRILLOUIN|   120           0.00195       -0.39062        0.23438        0.00000
 BRILLOUIN|   121           0.00195       -0.39062        0.26562        0.00000
 BRILLOUIN|   122           0.00195       -0.39062        0.29688        0.00000
 BRILLOUIN|   123           0.00195       -0.39062        0.32812        0.00000
 BRILLOUIN|   124           0.00195       -0.39062        0.35938        0.00000
 BRILLOUIN|   125           0.00195       -0.39062        0.39062        0.00000
 BRILLOUIN|   126           0.00195       -0.39062        0.42188        0.00000
 BRILLOUIN|   127           0.00195       -0.39062        0.45312        0.00000
 BRILLOUIN|   128           0.00195       -0.39062        0.48438        0.00000
 BRILLOUIN|   129           0.00195       -0.35938       -0.48438        0.00000
 BRILLOUIN|   130           0.00195       -0.35938       -0.45312        0.00000
 BRILLOUIN|   131           0.00195       -0.35938       -0.42188        0.00000
 BRILLOUIN|   132           0.00195       -0.35938       -0.39062        0.00000
 BRILLOUIN|   133           0.00195       -0.35938       -0.35938        0.00000
 BRILLOUIN|   134           0.00195       -0.35938       -0.32812        0.00000
 BRILLOUIN|   135           0.00195       -0.35938       -0.29688        0.00000
 BRILLOUIN|   136           0.00195       -0.35938       -0.26562        0.00000
 BRILLOUIN|   137           0.00195       -0.35938       -0.23438        0.00000
 BRILLOUIN|   138           0.00195       -0.35938       -0.20312        0.00000
 BRILLOUIN|   139           0.00195       -0.35938       -0.17188        0.00000
 BRILLOUIN|   140           0.00195       -0.35938       -0.14062        0.00000
 BRILLOUIN|   141           0.00195       -0.35938       -0.10938        0.00000
 BRILLOUIN|   142           0.00195       -0.35938       -0.07812        0.00000
 BRILLOUIN|   143           0.00195       -0.35938       -0.04688        0.00000
 BRILLOUIN|   144           0.00195       -0.35938       -0.01562        0.00000
 BRILLOUIN|   145           0.00195       -0.35938        0.01562        0.00000
 BRILLOUIN|   146           0.00195       -0.35938        0.04688        0.00000
 BRILLOUIN|   147           0.00195       -0.35938        0.07812        0.00000
 BRILLOUIN|   148           0.00195       -0.35938        0.10938        0.00000
 BRILLOUIN|   149           0.00195       -0.35938        0.14062        0.00000
 BRILLOUIN|   150           0.00195       -0.35938        0.17188        0.00000
 BRILLOUIN|   151           0.00195       -0.35938        0.20312        0.00000
 BRILLOUIN|   152           0.00195       -0.35938        0.23438        0.00000
 BRILLOUIN|   153           0.00195       -0.35938        0.26562        0.00000
 BRILLOUIN|   154           0.00195       -0.35938        0.29688        0.00000
 BRILLOUIN|   155           0.00195       -0.35938        0.32812        0.00000
 BRILLOUIN|   156           0.00195       -0.35938        0.35938        0.00000
 BRILLOUIN|   157           0.00195       -0.35938        0.39062        0.00000
 BRILLOUIN|   158           0.00195       -0.35938        0.42188        0.00000
 BRILLOUIN|   159           0.00195       -0.35938        0.45312        0.00000
 BRILLOUIN|   160           0.00195       -0.35938        0.48438        0.00000
 BRILLOUIN|   161           0.00195       -0.32812       -0.48438        0.00000
 BRILLOUIN|   162           0.00195       -0.32812       -0.45312        0.00000
 BRILLOUIN|   163           0.00195       -0.32812       -0.42188        0.00000
 BRILLOUIN|   164           0.00195       -0.32812       -0.39062        0.00000
 BRILLOUIN|   165           0.00195       -0.32812       -0.35938        0.00000
 BRILLOUIN|   166           0.00195       -0.32812       -0.32812        0.00000
 BRILLOUIN|   167           0.00195       -0.32812       -0.29688        0.00000
 BRILLOUIN|   168           0.00195       -0.32812       -0.26562        0.00000
 BRILLOUIN|   169           0.00195       -0.32812       -0.23438        0.00000
 BRILLOUIN|   170           0.00195       -0.32812       -0.20312        0.00000
 BRILLOUIN|   171           0.00195       -0.32812       -0.17188        0.00000
 BRILLOUIN|   172           0.00195       -0.32812       -0.14062        0.00000
 BRILLOUIN|   173           0.00195       -0.32812       -0.10938        0.00000
 BRILLOUIN|   174           0.00195       -0.32812       -0.07812        0.00000
 BRILLOUIN|   175           0.00195       -0.32812       -0.04688        0.00000
 BRILLOUIN|   176           0.00195       -0.32812       -0.01562        0.00000
 BRILLOUIN|   177           0.00195       -0.32812        0.01562        0.00000
 BRILLOUIN|   178           0.00195       -0.32812        0.04688        0.00000
 BRILLOUIN|   179           0.00195       -0.32812        0.07812        0.00000
 BRILLOUIN|   180           0.00195       -0.32812        0.10938        0.00000
 BRILLOUIN|   181           0.00195       -0.32812        0.14062        0.00000
 BRILLOUIN|   182           0.00195       -0.32812        0.17188        0.00000
 BRILLOUIN|   183           0.00195       -0.32812        0.20312        0.00000
 BRILLOUIN|   184           0.00195       -0.32812        0.23438        0.00000
 BRILLOUIN|   185           0.00195       -0.32812        0.26562        0.00000
 BRILLOUIN|   186           0.00195       -0.32812        0.29688        0.00000
 BRILLOUIN|   187           0.00195       -0.32812        0.32812        0.00000
 BRILLOUIN|   188           0.00195       -0.32812        0.35938        0.00000
 BRILLOUIN|   189           0.00195       -0.32812        0.39062        0.00000
 BRILLOUIN|   190           0.00195       -0.32812        0.42188        0.00000
 BRILLOUIN|   191           0.00195       -0.32812        0.45312        0.00000
 BRILLOUIN|   192           0.00195       -0.32812        0.48438        0.00000
 BRILLOUIN|   193           0.00195       -0.29688       -0.48438        0.00000
 BRILLOUIN|   194           0.00195       -0.29688       -0.45312        0.00000
 BRILLOUIN|   195           0.00195       -0.29688       -0.42188        0.00000
 BRILLOUIN|   196           0.00195       -0.29688       -0.39062        0.00000
 BRILLOUIN|   197           0.00195       -0.29688       -0.35938        0.00000
 BRILLOUIN|   198           0.00195       -0.29688       -0.32812        0.00000
 BRILLOUIN|   199           0.00195       -0.29688       -0.29688        0.00000
 BRILLOUIN|   200           0.00195       -0.29688       -0.26562        0.00000
 BRILLOUIN|   201           0.00195       -0.29688       -0.23438        0.00000
 BRILLOUIN|   202           0.00195       -0.29688       -0.20312        0.00000
 BRILLOUIN|   203           0.00195       -0.29688       -0.17188        0.00000
 BRILLOUIN|   204           0.00195       -0.29688       -0.14062        0.00000
 BRILLOUIN|   205           0.00195       -0.29688       -0.10938        0.00000
 BRILLOUIN|   206           0.00195       -0.29688       -0.07812        0.00000
 BRILLOUIN|   207           0.00195       -0.29688       -0.04688        0.00000
 BRILLOUIN|   208           0.00195       -0.29688       -0.01562        0.00000
 BRILLOUIN|   209           0.00195       -0.29688        0.01562        0.00000
 BRILLOUIN|   210           0.00195       -0.29688        0.04688        0.00000
 BRILLOUIN|   211           0.00195       -0.29688        0.07812        0.00000
 BRILLOUIN|   212           0.00195       -0.29688        0.10938        0.00000
 BRILLOUIN|   213           0.00195       -0.29688        0.14062        0.00000
 BRILLOUIN|   214           0.00195       -0.29688        0.17188        0.00000
 BRILLOUIN|   215           0.00195       -0.29688        0.20312        0.00000
 BRILLOUIN|   216           0.00195       -0.29688        0.23438        0.00000
 BRILLOUIN|   217           0.00195       -0.29688        0.26562        0.00000
 BRILLOUIN|   218           0.00195       -0.29688        0.29688        0.00000
 BRILLOUIN|   219           0.00195       -0.29688        0.32812        0.00000
 BRILLOUIN|   220           0.00195       -0.29688        0.35938        0.00000
 BRILLOUIN|   221           0.00195       -0.29688        0.39062        0.00000
 BRILLOUIN|   222           0.00195       -0.29688        0.42188        0.00000
 BRILLOUIN|   223           0.00195       -0.29688        0.45312        0.00000
 BRILLOUIN|   224           0.00195       -0.29688        0.48438        0.00000
 BRILLOUIN|   225           0.00195       -0.26562       -0.48438        0.00000
 BRILLOUIN|   226           0.00195       -0.26562       -0.45312        0.00000
 BRILLOUIN|   227           0.00195       -0.26562       -0.42188        0.00000
 BRILLOUIN|   228           0.00195       -0.26562       -0.39062        0.00000
 BRILLOUIN|   229           0.00195       -0.26562       -0.35938        0.00000
 BRILLOUIN|   230           0.00195       -0.26562       -0.32812        0.00000
 BRILLOUIN|   231           0.00195       -0.26562       -0.29688        0.00000
 BRILLOUIN|   232           0.00195       -0.26562       -0.26562        0.00000
 BRILLOUIN|   233           0.00195       -0.26562       -0.23438        0.00000
 BRILLOUIN|   234           0.00195       -0.26562       -0.20312        0.00000
 BRILLOUIN|   235           0.00195       -0.26562       -0.17188        0.00000
 BRILLOUIN|   236           0.00195       -0.26562       -0.14062        0.00000
 BRILLOUIN|   237           0.00195       -0.26562       -0.10938        0.00000
 BRILLOUIN|   238           0.00195       -0.26562       -0.07812        0.00000
 BRILLOUIN|   239           0.00195       -0.26562       -0.04688        0.00000
 BRILLOUIN|   240           0.00195       -0.26562       -0.01562        0.00000
 BRILLOUIN|   241           0.00195       -0.26562        0.01562        0.00000
 BRILLOUIN|   242           0.00195       -0.26562        0.04688        0.00000
 BRILLOUIN|   243           0.00195       -0.26562        0.07812        0.00000
 BRILLOUIN|   244           0.00195       -0.26562        0.10938        0.00000
 BRILLOUIN|   245           0.00195       -0.26562        0.14062        0.00000
 BRILLOUIN|   246           0.00195       -0.26562        0.17188        0.00000
 BRILLOUIN|   247           0.00195       -0.26562        0.20312        0.00000
 BRILLOUIN|   248           0.00195       -0.26562        0.23438        0.00000
 BRILLOUIN|   249           0.00195       -0.26562        0.26562        0.00000
 BRILLOUIN|   250           0.00195       -0.26562        0.29688        0.00000
 BRILLOUIN|   251           0.00195       -0.26562        0.32812        0.00000
 BRILLOUIN|   252           0.00195       -0.26562        0.35938        0.00000
 BRILLOUIN|   253           0.00195       -0.26562        0.39062        0.00000
 BRILLOUIN|   254           0.00195       -0.26562        0.42188        0.00000
 BRILLOUIN|   255           0.00195       -0.26562        0.45312        0.00000
 BRILLOUIN|   256           0.00195       -0.26562        0.48438        0.00000
 BRILLOUIN|   257           0.00195       -0.23438       -0.48438        0.00000
 BRILLOUIN|   258           0.00195       -0.23438       -0.45312        0.00000
 BRILLOUIN|   259           0.00195       -0.23438       -0.42188        0.00000
 BRILLOUIN|   260           0.00195       -0.23438       -0.39062        0.00000
 BRILLOUIN|   261           0.00195       -0.23438       -0.35938        0.00000
 BRILLOUIN|   262           0.00195       -0.23438       -0.32812        0.00000
 BRILLOUIN|   263           0.00195       -0.23438       -0.29688        0.00000
 BRILLOUIN|   264           0.00195       -0.23438       -0.26562        0.00000
 BRILLOUIN|   265           0.00195       -0.23438       -0.23438        0.00000
 BRILLOUIN|   266           0.00195       -0.23438       -0.20312        0.00000
 BRILLOUIN|   267           0.00195       -0.23438       -0.17188        0.00000
 BRILLOUIN|   268           0.00195       -0.23438       -0.14062        0.00000
 BRILLOUIN|   269           0.00195       -0.23438       -0.10938        0.00000
 BRILLOUIN|   270           0.00195       -0.23438       -0.07812        0.00000
 BRILLOUIN|   271           0.00195       -0.23438       -0.04688        0.00000
 BRILLOUIN|   272           0.00195       -0.23438       -0.01562        0.00000
 BRILLOUIN|   273           0.00195       -0.23438        0.01562        0.00000
 BRILLOUIN|   274           0.00195       -0.23438        0.04688        0.00000
 BRILLOUIN|   275           0.00195       -0.23438        0.07812        0.00000
 BRILLOUIN|   276           0.00195       -0.23438        0.10938        0.00000
 BRILLOUIN|   277           0.00195       -0.23438        0.14062        0.00000
 BRILLOUIN|   278           0.00195       -0.23438        0.17188        0.00000
 BRILLOUIN|   279           0.00195       -0.23438        0.20312        0.00000
 BRILLOUIN|   280           0.00195       -0.23438        0.23438        0.00000
 BRILLOUIN|   281           0.00195       -0.23438        0.26562        0.00000
 BRILLOUIN|   282           0.00195       -0.23438        0.29688        0.00000
 BRILLOUIN|   283           0.00195       -0.23438        0.32812        0.00000
 BRILLOUIN|   284           0.00195       -0.23438        0.35938        0.00000
 BRILLOUIN|   285           0.00195       -0.23438        0.39062        0.00000
 BRILLOUIN|   286           0.00195       -0.23438        0.42188        0.00000
 BRILLOUIN|   287           0.00195       -0.23438        0.45312        0.00000
 BRILLOUIN|   288           0.00195       -0.23438        0.48438        0.00000
 BRILLOUIN|   289           0.00195       -0.20312       -0.48438        0.00000
 BRILLOUIN|   290           0.00195       -0.20312       -0.45312        0.00000
 BRILLOUIN|   291           0.00195       -0.20312       -0.42188        0.00000
 BRILLOUIN|   292           0.00195       -0.20312       -0.39062        0.00000
 BRILLOUIN|   293           0.00195       -0.20312       -0.35938        0.00000
 BRILLOUIN|   294           0.00195       -0.20312       -0.32812        0.00000
 BRILLOUIN|   295           0.00195       -0.20312       -0.29688        0.00000
 BRILLOUIN|   296           0.00195       -0.20312       -0.26562        0.00000
 BRILLOUIN|   297           0.00195       -0.20312       -0.23438        0.00000
 BRILLOUIN|   298           0.00195       -0.20312       -0.20312        0.00000
 BRILLOUIN|   299           0.00195       -0.20312       -0.17188        0.00000
 BRILLOUIN|   300           0.00195       -0.20312       -0.14062        0.00000
 BRILLOUIN|   301           0.00195       -0.20312       -0.10938        0.00000
 BRILLOUIN|   302           0.00195       -0.20312       -0.07812        0.00000
 BRILLOUIN|   303           0.00195       -0.20312       -0.04688        0.00000
 BRILLOUIN|   304           0.00195       -0.20312       -0.01562        0.00000
 BRILLOUIN|   305           0.00195       -0.20312        0.01562        0.00000
 BRILLOUIN|   306           0.00195       -0.20312        0.04688        0.00000
 BRILLOUIN|   307           0.00195       -0.20312        0.07812        0.00000
 BRILLOUIN|   308           0.00195       -0.20312        0.10938        0.00000
 BRILLOUIN|   309           0.00195       -0.20312        0.14062        0.00000
 BRILLOUIN|   310           0.00195       -0.20312        0.17188        0.00000
 BRILLOUIN|   311           0.00195       -0.20312        0.20312        0.00000
 BRILLOUIN|   312           0.00195       -0.20312        0.23438        0.00000
 BRILLOUIN|   313           0.00195       -0.20312        0.26562        0.00000
 BRILLOUIN|   314           0.00195       -0.20312        0.29688        0.00000
 BRILLOUIN|   315           0.00195       -0.20312        0.32812        0.00000
 BRILLOUIN|   316           0.00195       -0.20312        0.35938        0.00000
 BRILLOUIN|   317           0.00195       -0.20312        0.39062        0.00000
 BRILLOUIN|   318           0.00195       -0.20312        0.42188        0.00000
 BRILLOUIN|   319           0.00195       -0.20312        0.45312        0.00000
 BRILLOUIN|   320           0.00195       -0.20312        0.48438        0.00000
 BRILLOUIN|   321           0.00195       -0.17188       -0.48438        0.00000
 BRILLOUIN|   322           0.00195       -0.17188       -0.45312        0.00000
 BRILLOUIN|   323           0.00195       -0.17188       -0.42188        0.00000
 BRILLOUIN|   324           0.00195       -0.17188       -0.39062        0.00000
 BRILLOUIN|   325           0.00195       -0.17188       -0.35938        0.00000
 BRILLOUIN|   326           0.00195       -0.17188       -0.32812        0.00000
 BRILLOUIN|   327           0.00195       -0.17188       -0.29688        0.00000
 BRILLOUIN|   328           0.00195       -0.17188       -0.26562        0.00000
 BRILLOUIN|   329           0.00195       -0.17188       -0.23438        0.00000
 BRILLOUIN|   330           0.00195       -0.17188       -0.20312        0.00000
 BRILLOUIN|   331           0.00195       -0.17188       -0.17188        0.00000
 BRILLOUIN|   332           0.00195       -0.17188       -0.14062        0.00000
 BRILLOUIN|   333           0.00195       -0.17188       -0.10938        0.00000
 BRILLOUIN|   334           0.00195       -0.17188       -0.07812        0.00000
 BRILLOUIN|   335           0.00195       -0.17188       -0.04688        0.00000
 BRILLOUIN|   336           0.00195       -0.17188       -0.01562        0.00000
 BRILLOUIN|   337           0.00195       -0.17188        0.01562        0.00000
 BRILLOUIN|   338           0.00195       -0.17188        0.04688        0.00000
 BRILLOUIN|   339           0.00195       -0.17188        0.07812        0.00000
 BRILLOUIN|   340           0.00195       -0.17188        0.10938        0.00000
 BRILLOUIN|   341           0.00195       -0.17188        0.14062        0.00000
 BRILLOUIN|   342           0.00195       -0.17188        0.17188        0.00000
 BRILLOUIN|   343           0.00195       -0.17188        0.20312        0.00000
 BRILLOUIN|   344           0.00195       -0.17188        0.23438        0.00000
 BRILLOUIN|   345           0.00195       -0.17188        0.26562        0.00000
 BRILLOUIN|   346           0.00195       -0.17188        0.29688        0.00000
 BRILLOUIN|   347           0.00195       -0.17188        0.32812        0.00000
 BRILLOUIN|   348           0.00195       -0.17188        0.35938        0.00000
 BRILLOUIN|   349           0.00195       -0.17188        0.39062        0.00000
 BRILLOUIN|   350           0.00195       -0.17188        0.42188        0.00000
 BRILLOUIN|   351           0.00195       -0.17188        0.45312        0.00000
 BRILLOUIN|   352           0.00195       -0.17188        0.48438        0.00000
 BRILLOUIN|   353           0.00195       -0.14062       -0.48438        0.00000
 BRILLOUIN|   354           0.00195       -0.14062       -0.45312        0.00000
 BRILLOUIN|   355           0.00195       -0.14062       -0.42188        0.00000
 BRILLOUIN|   356           0.00195       -0.14062       -0.39062        0.00000
 BRILLOUIN|   357           0.00195       -0.14062       -0.35938        0.00000
 BRILLOUIN|   358           0.00195       -0.14062       -0.32812        0.00000
 BRILLOUIN|   359           0.00195       -0.14062       -0.29688        0.00000
 BRILLOUIN|   360           0.00195       -0.14062       -0.26562        0.00000
 BRILLOUIN|   361           0.00195       -0.14062       -0.23438        0.00000
 BRILLOUIN|   362           0.00195       -0.14062       -0.20312        0.00000
 BRILLOUIN|   363           0.00195       -0.14062       -0.17188        0.00000
 BRILLOUIN|   364           0.00195       -0.14062       -0.14062        0.00000
 BRILLOUIN|   365           0.00195       -0.14062       -0.10938        0.00000
 BRILLOUIN|   366           0.00195       -0.14062       -0.07812        0.00000
 BRILLOUIN|   367           0.00195       -0.14062       -0.04688        0.00000
 BRILLOUIN|   368           0.00195       -0.14062       -0.01562        0.00000
 BRILLOUIN|   369           0.00195       -0.14062        0.01562        0.00000
 BRILLOUIN|   370           0.00195       -0.14062        0.04688        0.00000
 BRILLOUIN|   371           0.00195       -0.14062        0.07812        0.00000
 BRILLOUIN|   372           0.00195       -0.14062        0.10938        0.00000
 BRILLOUIN|   373           0.00195       -0.14062        0.14062        0.00000
 BRILLOUIN|   374           0.00195       -0.14062        0.17188        0.00000
 BRILLOUIN|   375           0.00195       -0.14062        0.20312        0.00000
 BRILLOUIN|   376           0.00195       -0.14062        0.23438        0.00000
 BRILLOUIN|   377           0.00195       -0.14062        0.26562        0.00000
 BRILLOUIN|   378           0.00195       -0.14062        0.29688        0.00000
 BRILLOUIN|   379           0.00195       -0.14062        0.32812        0.00000
 BRILLOUIN|   380           0.00195       -0.14062        0.35938        0.00000
 BRILLOUIN|   381           0.00195       -0.14062        0.39062        0.00000
 BRILLOUIN|   382           0.00195       -0.14062        0.42188        0.00000
 BRILLOUIN|   383           0.00195       -0.14062        0.45312        0.00000
 BRILLOUIN|   384           0.00195       -0.14062        0.48438        0.00000
 BRILLOUIN|   385           0.00195       -0.10938       -0.48438        0.00000
 BRILLOUIN|   386           0.00195       -0.10938       -0.45312        0.00000
 BRILLOUIN|   387           0.00195       -0.10938       -0.42188        0.00000
 BRILLOUIN|   388           0.00195       -0.10938       -0.39062        0.00000
 BRILLOUIN|   389           0.00195       -0.10938       -0.35938        0.00000
 BRILLOUIN|   390           0.00195       -0.10938       -0.32812        0.00000
 BRILLOUIN|   391           0.00195       -0.10938       -0.29688        0.00000
 BRILLOUIN|   392           0.00195       -0.10938       -0.26562        0.00000
 BRILLOUIN|   393           0.00195       -0.10938       -0.23438        0.00000
 BRILLOUIN|   394           0.00195       -0.10938       -0.20312        0.00000
 BRILLOUIN|   395           0.00195       -0.10938       -0.17188        0.00000
 BRILLOUIN|   396           0.00195       -0.10938       -0.14062        0.00000
 BRILLOUIN|   397           0.00195       -0.10938       -0.10938        0.00000
 BRILLOUIN|   398           0.00195       -0.10938       -0.07812        0.00000
 BRILLOUIN|   399           0.00195       -0.10938       -0.04688        0.00000
 BRILLOUIN|   400           0.00195       -0.10938       -0.01562        0.00000
 BRILLOUIN|   401           0.00195       -0.10938        0.01562        0.00000
 BRILLOUIN|   402           0.00195       -0.10938        0.04688        0.00000
 BRILLOUIN|   403           0.00195       -0.10938        0.07812        0.00000
 BRILLOUIN|   404           0.00195       -0.10938        0.10938        0.00000
 BRILLOUIN|   405           0.00195       -0.10938        0.14062        0.00000
 BRILLOUIN|   406           0.00195       -0.10938        0.17188        0.00000
 BRILLOUIN|   407           0.00195       -0.10938        0.20312        0.00000
 BRILLOUIN|   408           0.00195       -0.10938        0.23438        0.00000
 BRILLOUIN|   409           0.00195       -0.10938        0.26562        0.00000
 BRILLOUIN|   410           0.00195       -0.10938        0.29688        0.00000
 BRILLOUIN|   411           0.00195       -0.10938        0.32812        0.00000
 BRILLOUIN|   412           0.00195       -0.10938        0.35938        0.00000
 BRILLOUIN|   413           0.00195       -0.10938        0.39062        0.00000
 BRILLOUIN|   414           0.00195       -0.10938        0.42188        0.00000
 BRILLOUIN|   415           0.00195       -0.10938        0.45312        0.00000
 BRILLOUIN|   416           0.00195       -0.10938        0.48438        0.00000
 BRILLOUIN|   417           0.00195       -0.07812       -0.48438        0.00000
 BRILLOUIN|   418           0.00195       -0.07812       -0.45312        0.00000
 BRILLOUIN|   419           0.00195       -0.07812       -0.42188        0.00000
 BRILLOUIN|   420           0.00195       -0.07812       -0.39062        0.00000
 BRILLOUIN|   421           0.00195       -0.07812       -0.35938        0.00000
 BRILLOUIN|   422           0.00195       -0.07812       -0.32812        0.00000
 BRILLOUIN|   423           0.00195       -0.07812       -0.29688        0.00000
 BRILLOUIN|   424           0.00195       -0.07812       -0.26562        0.00000
 BRILLOUIN|   425           0.00195       -0.07812       -0.23438        0.00000
 BRILLOUIN|   426           0.00195       -0.07812       -0.20312        0.00000
 BRILLOUIN|   427           0.00195       -0.07812       -0.17188        0.00000
 BRILLOUIN|   428           0.00195       -0.07812       -0.14062        0.00000
 BRILLOUIN|   429           0.00195       -0.07812       -0.10938        0.00000
 BRILLOUIN|   430           0.00195       -0.07812       -0.07812        0.00000
 BRILLOUIN|   431           0.00195       -0.07812       -0.04688        0.00000
 BRILLOUIN|   432           0.00195       -0.07812       -0.01562        0.00000
 BRILLOUIN|   433           0.00195       -0.07812        0.01562        0.00000
 BRILLOUIN|   434           0.00195       -0.07812        0.04688        0.00000
 BRILLOUIN|   435           0.00195       -0.07812        0.07812        0.00000
 BRILLOUIN|   436           0.00195       -0.07812        0.10938        0.00000
 BRILLOUIN|   437           0.00195       -0.07812        0.14062        0.00000
 BRILLOUIN|   438           0.00195       -0.07812        0.17188        0.00000
 BRILLOUIN|   439           0.00195       -0.07812        0.20312        0.00000
 BRILLOUIN|   440           0.00195       -0.07812        0.23438        0.00000
 BRILLOUIN|   441           0.00195       -0.07812        0.26562        0.00000
 BRILLOUIN|   442           0.00195       -0.07812        0.29688        0.00000
 BRILLOUIN|   443           0.00195       -0.07812        0.32812        0.00000
 BRILLOUIN|   444           0.00195       -0.07812        0.35938        0.00000
 BRILLOUIN|   445           0.00195       -0.07812        0.39062        0.00000
 BRILLOUIN|   446           0.00195       -0.07812        0.42188        0.00000
 BRILLOUIN|   447           0.00195       -0.07812        0.45312        0.00000
 BRILLOUIN|   448           0.00195       -0.07812        0.48438        0.00000
 BRILLOUIN|   449           0.00195       -0.04688       -0.48438        0.00000
 BRILLOUIN|   450           0.00195       -0.04688       -0.45312        0.00000
 BRILLOUIN|   451           0.00195       -0.04688       -0.42188        0.00000
 BRILLOUIN|   452           0.00195       -0.04688       -0.39062        0.00000
 BRILLOUIN|   453           0.00195       -0.04688       -0.35938        0.00000
 BRILLOUIN|   454           0.00195       -0.04688       -0.32812        0.00000
 BRILLOUIN|   455           0.00195       -0.04688       -0.29688        0.00000
 BRILLOUIN|   456           0.00195       -0.04688       -0.26562        0.00000
 BRILLOUIN|   457           0.00195       -0.04688       -0.23438        0.00000
 BRILLOUIN|   458           0.00195       -0.04688       -0.20312        0.00000
 BRILLOUIN|   459           0.00195       -0.04688       -0.17188        0.00000
 BRILLOUIN|   460           0.00195       -0.04688       -0.14062        0.00000
 BRILLOUIN|   461           0.00195       -0.04688       -0.10938        0.00000
 BRILLOUIN|   462           0.00195       -0.04688       -0.07812        0.00000
 BRILLOUIN|   463           0.00195       -0.04688       -0.04688        0.00000
 BRILLOUIN|   464           0.00195       -0.04688       -0.01562        0.00000
 BRILLOUIN|   465           0.00195       -0.04688        0.01562        0.00000
 BRILLOUIN|   466           0.00195       -0.04688        0.04688        0.00000
 BRILLOUIN|   467           0.00195       -0.04688        0.07812        0.00000
 BRILLOUIN|   468           0.00195       -0.04688        0.10938        0.00000
 BRILLOUIN|   469           0.00195       -0.04688        0.14062        0.00000
 BRILLOUIN|   470           0.00195       -0.04688        0.17188        0.00000
 BRILLOUIN|   471           0.00195       -0.04688        0.20312        0.00000
 BRILLOUIN|   472           0.00195       -0.04688        0.23438        0.00000
 BRILLOUIN|   473           0.00195       -0.04688        0.26562        0.00000
 BRILLOUIN|   474           0.00195       -0.04688        0.29688        0.00000
 BRILLOUIN|   475           0.00195       -0.04688        0.32812        0.00000
 BRILLOUIN|   476           0.00195       -0.04688        0.35938        0.00000
 BRILLOUIN|   477           0.00195       -0.04688        0.39062        0.00000
 BRILLOUIN|   478           0.00195       -0.04688        0.42188        0.00000
 BRILLOUIN|   479           0.00195       -0.04688        0.45312        0.00000
 BRILLOUIN|   480           0.00195       -0.04688        0.48438        0.00000
 BRILLOUIN|   481           0.00195       -0.01562       -0.48438        0.00000
 BRILLOUIN|   482           0.00195       -0.01562       -0.45312        0.00000
 BRILLOUIN|   483           0.00195       -0.01562       -0.42188        0.00000
 BRILLOUIN|   484           0.00195       -0.01562       -0.39062        0.00000
 BRILLOUIN|   485           0.00195       -0.01562       -0.35938        0.00000
 BRILLOUIN|   486           0.00195       -0.01562       -0.32812        0.00000
 BRILLOUIN|   487           0.00195       -0.01562       -0.29688        0.00000
 BRILLOUIN|   488           0.00195       -0.01562       -0.26562        0.00000
 BRILLOUIN|   489           0.00195       -0.01562       -0.23438        0.00000
 BRILLOUIN|   490           0.00195       -0.01562       -0.20312        0.00000
 BRILLOUIN|   491           0.00195       -0.01562       -0.17188        0.00000
 BRILLOUIN|   492           0.00195       -0.01562       -0.14062        0.00000
 BRILLOUIN|   493           0.00195       -0.01562       -0.10938        0.00000
 BRILLOUIN|   494           0.00195       -0.01562       -0.07812        0.00000
 BRILLOUIN|   495           0.00195       -0.01562       -0.04688        0.00000
 BRILLOUIN|   496           0.00195       -0.01562       -0.01562        0.00000
 BRILLOUIN|   497           0.00195       -0.01562        0.01562        0.00000
 BRILLOUIN|   498           0.00195       -0.01562        0.04688        0.00000
 BRILLOUIN|   499           0.00195       -0.01562        0.07812        0.00000
 BRILLOUIN|   500           0.00195       -0.01562        0.10938        0.00000
 BRILLOUIN|   501           0.00195       -0.01562        0.14062        0.00000
 BRILLOUIN|   502           0.00195       -0.01562        0.17188        0.00000
 BRILLOUIN|   503           0.00195       -0.01562        0.20312        0.00000
 BRILLOUIN|   504           0.00195       -0.01562        0.23438        0.00000
 BRILLOUIN|   505           0.00195       -0.01562        0.26562        0.00000
 BRILLOUIN|   506           0.00195       -0.01562        0.29688        0.00000
 BRILLOUIN|   507           0.00195       -0.01562        0.32812        0.00000
 BRILLOUIN|   508           0.00195       -0.01562        0.35938        0.00000
 BRILLOUIN|   509           0.00195       -0.01562        0.39062        0.00000
 BRILLOUIN|   510           0.00195       -0.01562        0.42188        0.00000
 BRILLOUIN|   511           0.00195       -0.01562        0.45312        0.00000
 BRILLOUIN|   512           0.00195       -0.01562        0.48438        0.00000
 *******************************************************************************

 *******************************************************************************
 *******************************************************************************
 **                                                                           **
 **     #####                         ##              ##                      **
 **    ##   ##            ##          ##              ##                      **
 **   ##     ##                       ##            ######                    **
 **   ##     ##  ##   ##  ##   #####  ##  ##   ####   ##    #####    #####    **
 **   ##     ##  ##   ##  ##  ##      ## ##   ##      ##   ##   ##  ##   ##   **
 **   ##  ## ##  ##   ##  ##  ##      ####     ###    ##   ######   ######    **
 **    ##  ###   ##   ##  ##  ##      ## ##      ##   ##   ##       ##        **
 **     #######   #####   ##   #####  ##  ##  ####    ##    #####   ##        **
 **           ##                                                    ##        **
 **                                                                           **
 **                                                ... make the atoms dance   **
 **                                                                           **
 **            Copyright (C) by CP2K developers group (2000-2025)             **
 **                      J. Chem. Phys. 152, 194103 (2020)                    **
 **                                                                           **
 *******************************************************************************

 DFT| Spin restricted Kohn-Sham (RKS) calculation                            RKS
 DFT| Multiplicity                                                             1
 DFT| Number of spin states                                                    1
 DFT| Charge                                                                   0
 DFT| Self-interaction correction (SIC)                                       NO
 DFT| Cutoffs: density                                              1.000000E-10
 DFT|          gradient                                             1.000000E-10
 DFT|          tau                                                  1.000000E-10
 DFT|          cutoff_smoothing_range                               0.000000E+00
 DFT| XC density smoothing                                                  NONE
 DFT| XC derivatives                                                          PW

 FUNCTIONAL| PBE:
 FUNCTIONAL| J.P.Perdew, K.Burke, M.Ernzerhof, Phys. Rev. Letter, vol. 77, n 18,
 FUNCTIONAL|  pp. 3865-3868, (1996) {spin unpolarized}                          


 QS| Method:                                                                GAPW
 QS| Density plane wave grid type                        NON-SPHERICAL FULLSPACE
 QS| Number of grid levels:                                                    4
 QS| Density cutoff [a.u.]:                                                250.0
 QS| Multi grid cutoff [a.u.]: 1) grid level                               250.0
 QS|                           2) grid level                                83.3
 QS|                           3) grid level                                27.8
 QS|                           4) grid level                                 9.3
 QS| Grid level progression factor:                                          3.0
 QS| Relative density cutoff [a.u.]:                                        50.0
 QS| Interaction thresholds: eps_pgf_orb:                                1.0E-12
 QS|                         eps_filter_matrix:                          0.0E+00
 QS|                         eps_core_charge:                            1.0E-14
 QS|                         eps_rho_gspace:                             1.0E-12
 QS|                         eps_rho_rspace:                             1.0E-12
 QS|                         eps_gvg_rspace:                             1.0E-06
 QS|                         eps_ppl:                                    1.0E-02
 QS|                         eps_ppnl:                                   1.0E-08
 QS| GAPW|      One center basis from orbital basis primitives
 QS| GAPW|                   eps_fit:                                    1.0E-04
 QS| GAPW|                   eps_iso:                                    1.0E-12
 QS| GAPW|                   eps_svd:                                    1.0E-08
 QS| GAPW|                   eps_cpc:                                    1.0E-12
 QS| GAPW|   atom-r-grid: quadrature:                                     GC_LOG
 QS| GAPW|      atom-s-grid:  max l :                                          6
 QS| GAPW|      max_l_rho0 :                                                   2
 QS| GAPW|      At least one kind is NOT PAW, i.e. it has only soft AO 
 QS| GAPW|      The NOT PAW atoms are treated fully GPW


 ATOMIC KIND INFORMATION

  1. Atomic kind: W                                     Number of atoms:       1

     Orbital Basis Set                                     aug-SZV-MOLOPT-SR-GTH

       Number of orbital shell sets:                                           1
       Number of orbital shells:                                               8
       Number of primitive Cartesian functions:                                6
       Number of Cartesian basis functions:                                   31
       Number of spherical basis functions:                                   26
       Norm type:                                                              2

       Normalised Cartesian orbitals:

                        Set   Shell   Orbital            Exponent    Coefficient

                          1       1    2s                0.074662      -0.014288
                                                         0.214446      -0.013622
                                                         0.501100      -0.158409
                                                         1.106150      -0.674409
                                                         2.893835       0.343542
                                                         3.103253       0.529378

                          1       2    3s                0.074662       0.097559
                                                         0.214446       0.068377
                                                         0.501100      -0.211692
                                                         1.106150      -0.477565
                                                         2.893835       0.569551
                                                         3.103253      -0.097470

                          1       3    4s                0.074662       0.110154
                                                         0.214446       0.032057
                                                         0.501100      -0.205812
                                                         1.106150       0.074053
                                                         2.893835       0.052359
                                                         3.103253       0.028561

                          1       4    3px               0.074662       0.000342
                                                         0.214446      -0.010443
                                                         0.501100      -0.267354
                                                         1.106150      -0.965857
                                                         2.893835      -5.556403
                                                         3.103253       6.695558
                          1       4    3py               0.074662       0.000342
                                                         0.214446      -0.010443
                                                         0.501100      -0.267354
                                                         1.106150      -0.965857
                                                         2.893835      -5.556403
                                                         3.103253       6.695558
                          1       4    3pz               0.074662       0.000342
                                                         0.214446      -0.010443
                                                         0.501100      -0.267354
                                                         1.106150      -0.965857
                                                         2.893835      -5.556403
                                                         3.103253       6.695558

                          1       5    4px               0.074662      -0.025823
                                                         0.214446      -0.106983
                                                         0.501100      -0.110188
                                                         1.106150       0.090439
                                                         2.893835       0.313766
                                                         3.103253       0.343398
                          1       5    4py               0.074662      -0.025823
                                                         0.214446      -0.106983
                                                         0.501100      -0.110188
                                                         1.106150       0.090439
                                                         2.893835       0.313766
                                                         3.103253       0.343398
                          1       5    4pz               0.074662      -0.025823
                                                         0.214446      -0.106983
                                                         0.501100      -0.110188
                                                         1.106150       0.090439
                                                         2.893835       0.313766
                                                         3.103253       0.343398

                          1       6    4dx2              0.074662       0.002139
                                                         0.214446       0.042391
                                                         0.501100       0.198591
                                                         1.106150       0.570193
                                                         2.893835       1.052039
                                                         3.103253      -0.912703
                          1       6    4dxy              0.074662       0.003705
                                                         0.214446       0.073424
                                                         0.501100       0.343970
                                                         1.106150       0.987602
                                                         2.893835       1.822186
                                                         3.103253      -1.580848
                          1       6    4dxz              0.074662       0.003705
                                                         0.214446       0.073424
                                                         0.501100       0.343970
                                                         1.106150       0.987602
                                                         2.893835       1.822186
                                                         3.103253      -1.580848
                          1       6    4dy2              0.074662       0.002139
                                                         0.214446       0.042391
                                                         0.501100       0.198591
                                                         1.106150       0.570193
                                                         2.893835       1.052039
                                                         3.103253      -0.912703
                          1       6    4dyz              0.074662       0.003705
                                                         0.214446       0.073424
                                                         0.501100       0.343970
                                                         1.106150       0.987602
                                                         2.893835       1.822186
                                                         3.103253      -1.580848
                          1       6    4dz2              0.074662       0.002139
                                                         0.214446       0.042391
                                                         0.501100       0.198591
                                                         1.106150       0.570193
                                                         2.893835       1.052039
                                                         3.103253      -0.912703

                          1       7    5dx2              0.074662      -0.005539
                                                         0.214446      -0.055672
                                                         0.501100      -0.201982
                                                         1.106150       0.147656
                                                         2.893835       0.458842
                                                         3.103253       0.902631
                          1       7    5dxy              0.074662      -0.009594
                                                         0.214446      -0.096427
                                                         0.501100      -0.349843
                                                         1.106150       0.255748
                                                         2.893835       0.794738
                                                         3.103253       1.563402
                          1       7    5dxz              0.074662      -0.009594
                                                         0.214446      -0.096427
                                                         0.501100      -0.349843
                                                         1.106150       0.255748
                                                         2.893835       0.794738
                                                         3.103253       1.563402
                          1       7    5dy2              0.074662      -0.005539
                                                         0.214446      -0.055672
                                                         0.501100      -0.201982
                                                         1.106150       0.147656
                                                         2.893835       0.458842
                                                         3.103253       0.902631
                          1       7    5dyz              0.074662      -0.009594
                                                         0.214446      -0.096427
                                                         0.501100      -0.349843
                                                         1.106150       0.255748
                                                         2.893835       0.794738
                                                         3.103253       1.563402
                          1       7    5dz2              0.074662      -0.005539
                                                         0.214446      -0.055672
                                                         0.501100      -0.201982
                                                         1.106150       0.147656
                                                         2.893835       0.458842
                                                         3.103253       0.902631

                          1       8    5fx3              0.074662       0.000325
                                                         0.214446       0.032337
                                                         0.501100       0.095319
                                                         1.106150       0.075344
                                                         2.893835       0.567697
                                                         3.103253       0.419733
                          1       8    5fx2y             0.074662       0.000727
                                                         0.214446       0.072308
                                                         0.501100       0.213140
                                                         1.106150       0.168474
                                                         2.893835       1.269409
                                                         3.103253       0.938552
                          1       8    5fx2z             0.074662       0.000727
                                                         0.214446       0.072308
                                                         0.501100       0.213140
                                                         1.106150       0.168474
                                                         2.893835       1.269409
                                                         3.103253       0.938552
                          1       8    5fxy2             0.074662       0.000727
                                                         0.214446       0.072308
                                                         0.501100       0.213140
                                                         1.106150       0.168474
                                                         2.893835       1.269409
                                                         3.103253       0.938552
                          1       8    5fxyz             0.074662       0.001260
                                                         0.214446       0.125240
                                                         0.501100       0.369169
                                                         1.106150       0.291805
                                                         2.893835       2.198681
                                                         3.103253       1.625620
                          1       8    5fxz2             0.074662       0.000727
                                                         0.214446       0.072308
                                                         0.501100       0.213140
                                                         1.106150       0.168474
                                                         2.893835       1.269409
                                                         3.103253       0.938552
                          1       8    5fy3              0.074662       0.000325
                                                         0.214446       0.032337
                                                         0.501100       0.095319
                                                         1.106150       0.075344
                                                         2.893835       0.567697
                                                         3.103253       0.419733
                          1       8    5fy2z             0.074662       0.000727
                                                         0.214446       0.072308
                                                         0.501100       0.213140
                                                         1.106150       0.168474
                                                         2.893835       1.269409
                                                         3.103253       0.938552
                          1       8    5fyz2             0.074662       0.000727
                                                         0.214446       0.072308
                                                         0.501100       0.213140
                                                         1.106150       0.168474
                                                         2.893835       1.269409
                                                         3.103253       0.938552
                          1       8    5fz3              0.074662       0.000325
                                                         0.214446       0.032337
                                                         0.501100       0.095319
                                                         1.106150       0.075344
                                                         2.893835       0.567697
                                                         3.103253       0.419733

     RI Auxiliary Basis Set             RI_aug-SZV-MOLOPT-GTH_N_RI_087_s_p_d_f_g

       Number of orbital shell sets:                                          21
       Number of orbital shells:                                              21
       Number of primitive Cartesian functions:                               21
       Number of Cartesian basis functions:                                  121
       Number of spherical basis functions:                                   87
       Norm type:                                                              2

       Normalised Cartesian orbitals:

                        Set   Shell   Orbital            Exponent    Coefficient

                          1       1    1s                0.187602       0.203160

                          2       1    8px               0.203638       0.194990
                          2       1    8py               0.203638       0.194990
                          2       1    8pz               0.203638       0.194990

                          3       1   13dx2              0.313215       0.215841
                          3       1   13dxy              0.313215       0.373847
                          3       1   13dxz              0.313215       0.373847
                          3       1   13dy2              0.313215       0.215841
                          3       1   13dyz              0.313215       0.373847
                          3       1   13dz2              0.313215       0.215841

                          4       1    2s                0.324802       0.306637

                          5       1    9px               0.343807       0.375261
                          5       1    9py               0.343807       0.375261
                          5       1    9pz               0.343807       0.375261

                          6       1   16fx3              0.407672       0.195504
                          6       1   16fx2y             0.407672       0.437159
                          6       1   16fx2z             0.407672       0.437159
                          6       1   16fxy2             0.407672       0.437159
                          6       1   16fxyz             0.407672       0.757182
                          6       1   16fxz2             0.407672       0.437159
                          6       1   16fy3              0.407672       0.195504
                          6       1   16fy2z             0.407672       0.437159
                          6       1   16fyz2             0.407672       0.437159
                          6       1   16fz3              0.407672       0.195504

                          7       1   19gx4              0.495939       0.161757
                          7       1   19gx3y             0.495939       0.427969
                          7       1   19gx3z             0.495939       0.427969
                          7       1   19gx2y2            0.495939       0.552506
                          7       1   19gx2yz            0.495939       0.956968
                          7       1   19gx2z2            0.495939       0.552506
                          7       1   19gxy3             0.495939       0.427969
                          7       1   19gxy2z            0.495939       0.956968
                          7       1   19gxyz2            0.495939       0.956968
                          7       1   19gxz3             0.495939       0.427969
                          7       1   19gy4              0.495939       0.161757
                          7       1   19gy3z             0.495939       0.427969
                          7       1   19gy2z2            0.495939       0.552506
                          7       1   19gyz3             0.495939       0.427969
                          7       1   19gz4              0.495939       0.161757

                          8       1   21hx5              0.561496       0.113690
                          8       1   21hx4y             0.561496       0.341070
                          8       1   21hx4z             0.561496       0.341070
                          8       1   21hx3y2            0.561496       0.520992
                          8       1   21hx3yz            0.561496       0.902385
                          8       1   21hx3z2            0.561496       0.520992
                          8       1   21hx2y3            0.561496       0.520992
                          8       1   21hx2y2z           0.561496       1.164975
                          8       1   21hx2yz2           0.561496       1.164975
                          8       1   21hx2z3            0.561496       0.520992
                          8       1   21hxy4             0.561496       0.341070
                          8       1   21hxy3z            0.561496       0.902385
                          8       1   21hxy2z2           0.561496       1.164975
                          8       1   21hxyz3            0.561496       0.902385
                          8       1   21hxz4             0.561496       0.341070
                          8       1   21hy5              0.561496       0.113690
                          8       1   21hy4z             0.561496       0.341070
                          8       1   21hy3z2            0.561496       0.520992
                          8       1   21hy2z3            0.561496       0.520992
                          8       1   21hyz4             0.561496       0.341070
                          8       1   21hz5              0.561496       0.113690

                          9       1    3s                0.565063       0.464497

                         10       1   10px               0.871759       1.200703
                         10       1   10py               0.871759       1.200703
                         10       1   10pz               0.871759       1.200703

                         11       1   17fx3              0.937904       1.274416
                         11       1   17fx2y             0.937904       2.849682
[...]
 -                                                                             -
 -                         MESSAGE PASSING PERFORMANCE                         -
 -                                                                             -
 -------------------------------------------------------------------------------

 ROUTINE             CALLS      AVE VOLUME [Bytes]
 MP_Group         35801802
 MP_Bcast         22891252                    147.
 MP_Allreduce     63963218                   4015.
 MP_Sync          61716330
 MP_Alltoall      29460934                    486.
 MP_SendRecv         10763                  38750.
 MP_ISendRecv        11092                  38155.
 MP_Wait           1319954
 MP_comm_split    22079531
 MP_ISend         12549626                  10467.
 MP_IRecv          4051588                   9602.
 -------------------------------------------------------------------------------


 -------------------------------------------------------------------------------
 -                                                                             -
 -                           R E F E R E N C E S                               -
 -                                                                             -
 -------------------------------------------------------------------------------
 
 CP2K version 2025.1 (Development Version), the CP2K developers group (2025).
 CP2K is freely available from https://www.cp2k.org/ .
 
 M. Graml, K. Zollner, D. Hernangmez-Prez, P. E. Faria Junior, J. Wilhelm.
 J. Chem. Theory Comput. 20, 2202-2208 (2024).
 Low-scaling GW algorithm applied to twisted transition-metal dichalcogenide 
 heterobilayers.
 https://doi.org/10.1021/acs.jctc.3c01230

 T. D. Kuehne, M. Iannuzzi, M. Del Ben, V. V. Rybkin, P. Seewald, F. Stein, T. 
 Laino, R. Z. Khaliullin, O. Schuett, F. Schiffmann, D. Golze, J. Wilhelm, S. 
 Chulkov, M. H. Bani-Hashemian, V. Weber, U. Borstnik, M. Taillefumier, A. S. 
 Jakobovits, A. Lazzaro, H. Pabst, T. Mueller, R. Schade, M. Guidon, S. 
 Andermatt, N. Holmberg, G. K. Schenter, A. Hehn, A. Bussy, F. Belleflamme, G. 
 Tabacchi, A. Gloess, M. Lass, I. Bethune, C. J. Mundy, C. Plessl, M. Watkins, 
 J. VandeVondele, M. Krack, J. Hutter.
 J. Chem. Phys. 152, 194103 (2020).
 CP2K: An electronic structure and molecular dynamics software package - 
 Quickstep: Efficient and accurate electronic structure calculations.
 https://doi.org/10.1063/5.0007045

 A. Togo, I. Tanaka.
 arXiv, 1808.01590 (2018).
 Spglib : a software library for crystal symmetry search.

 O. Schuett, P. Messmer, J. Hutter, J. VandeVondele.
 Electronic Structure Calculations on Graphics Processing Units, 173-190 (2016).
 GPU-Accelerated Sparse Matrix-Matrix Multiplication for Linear Scaling Density 
 Functional Theory.
 https://doi.org/10.1002/9781118670712.ch8

 A. Heinecke, G. Henry, M. Hutchinson, H. Pabst.
 Proceedings of Intl. Supercomputing Conference, 981-991 (2016).
 LIBXSMM: Accelerating Small Matrix Multiplications by Runtime Code Generation.
 https://doi.org/10.1109/SC.2016.83

 J. Hutter, M. Iannuzzi, F. Schiffmann, J. VandeVondele.
 WIREs Comput Mol Sci. 4, 15-25 (2014).
 CP2K: atomistic simulations of condensed matter systems.
 https://doi.org/10.1002/wcms.1159

 U. Borstnik, J. VandeVondele, V. Weber, J. Hutter.
 Parallel Comput. 40, 47-58 (2014).
 Sparse matrix multiplication: The distributed block-compressed sparse row 
 library.
 https://doi.org/10.1016/j.parco.2014.03.012

 A. Marek, V. Blum, R. Johanni, V. Havu, B. Lang, T. Auckenthaler, A. Heinecke, 
 H. Bungartz, H. Lederer.
 J. Phys. Condens. Matter 26, 213201 (2014).
 The ELPA library: scalable parallel eigenvalue solutions for electronic 
 structure theory and computational science.
 https://doi.org/10.1088/0953-8984/26/21/213201

 J. VandeVondele, J. Hutter.
 J. Chem. Phys. 127, 114105 (2007).
 Gaussian basis sets for accurate calculations on molecular systems in gas and 
 condensed phases.
 https://doi.org/10.1063/1.2770708

 M. Krack.
 Theor. Chem. Acc. 114, 145-152 (2005).
 Pseudopotentials for H to Kr optimized for gradient-corrected 
 exchange-correlation functionals.
 https://doi.org/10.1007/s00214-005-0655-y

 M. Frigo, S. G. Johnson.
 Proc. IEEE 93, 216-231 (2005).
 The design and implementation of FFTW3.
 https://doi.org/10.1109/JPROC.2004.840301

 M. Krack, M. Parrinello.
 Phys. Chem. Chem. Phys. 2, 2105-2112 (2000).
 All-electron ab-initio molecular dynamics.
 https://doi.org/10.1039/b001167n

 G. Lippert, J. Hutter, M. Parrinello.
 Theor. Chem. Acc. 103, 124-140 (1999).
 The Gaussian and augmented-plane-wave density functional method for ab initio 
 molecular dynamics simulations.
 https://doi.org/10.1007/s002140050523

 C. Hartwigsen, S. Goedecker, J. Hutter.
 Phys. Rev. B 58, 3641-3662 (1998).
 Relativistic separable dual-space Gaussian pseudopotentials from H to Rn.
 https://doi.org/10.1103/PhysRevB.58.3641

 S. Goedecker, M. Teter, J. Hutter.
 Phys. Rev. B 54, 1703-1710 (1996).
 Separable dual-space Gaussian pseudopotentials.
 https://doi.org/10.1103/PhysRevB.54.1703

 J. P. Perdew, K. Burke, M. Ernzerhof.
 Phys. Rev. Lett. 77, 3865-3868 (1996).
 Generalized gradient approximation made simple.
 https://doi.org/10.1103/PhysRevLett.77.3865


 -------------------------------------------------------------------------------
 -                                                                             -
 -                                T I M I N G                                  -
 -                                                                             -
 -------------------------------------------------------------------------------
 SUBROUTINE                       CALLS  ASD         SELF TIME        TOTAL TIME
                                MAXIMUM       AVERAGE  MAXIMUM  AVERAGE  MAXIMUM
 CP2K                                 1  1.0     0.04     0.08 68138.06 68138.37
 qs_energies                          1  2.0     0.00     0.01 67926.34 67926.64
 qs_energies_properties               1  3.0     0.00     0.00 67848.13 67848.44
 post_scf_bandstructure               1  4.0     0.00     0.00 67848.13 67848.44
 gw                                   1  5.0     0.00     0.00 67796.67 67796.98
 gw_calc_small_cell_full_kp           1  6.0     0.00     0.00 67608.92 67609.23
 dbt_total                      *******  9.6    29.11    31.27 46983.49 55375.34
 dbt_contract                   6614499 10.3    55.43    59.65 44427.58 52743.78
 dbt_tas_multiply               8272580 12.9     7.53     8.54 43188.32 51391.41
 dbt_tas_total                  8272580 13.9   465.50   502.60 43183.75 51386.63
 compute_chi                          1  7.0     0.11     0.26 35621.37 35621.50
 dbt_tas_estimate_result_nze    4136290 13.4   732.77   777.25 21291.35 27430.62
 G_times_3c                       44074  8.0    13.93    14.44 17738.88 20553.35
 mp_sync                        ******* 12.5 10684.00 19500.02 10684.00 19500.02
 compute_Sigma_c                      1  7.0     0.00     0.00 19171.83 19172.15
 convert_to_new_pgrid           ******* 14.9   109.50   140.47 14711.59 17643.89
 dbm_copy                       ******* 15.9 14602.09 17511.10 14602.09 17511.10
 contract_M_occ_vir_to_chi          250  8.0   114.95   123.56 12219.22 14688.95
 dbm_reserve_blocks             ******* 16.6 10626.22 13651.52 10626.22 13651.52
 dbt_tas_dbm                    8272580 14.9     7.03     7.60 11691.94 13422.37
 dbm_multiply                   8272580 16.9 11676.19 13405.03 11676.19 13405.03
 contract_to_Sigma                  397  8.0    55.81    60.97  9753.11 13017.75
 compute_W_real_space                 1  7.0    14.76    14.97  9348.93  9349.01
 contract_W                         207  8.0    11.74    12.43  7466.63  8877.81
 contract_to_Sigma_3c_x_G       1554829  9.0     2.06     2.26  6159.95  8368.18
 compute_Minv_and_Vsqrt               1  8.0     0.19     0.20  8298.31  8298.49
 build_2c_coulomb_matrix_kp_sma       2  9.0     3.29     3.74  8278.08  8278.13
 build_2c_coulomb_matrix_kp_sma  655360 10.0  7747.89  7874.98  7747.89  7874.98
 dbt_tas_reserve_blocks_index   ******* 15.8    23.31    25.62  6230.26  7790.15
 dbt_tas_reserve_blocks_templat ******* 14.1    36.13    42.30  4557.16  5306.96
 dbt_tas_replicate              8272580 14.9   200.97   223.47  4050.15  5299.21
 dbt_tas_mm_1N                  2099234 15.5     1.23     1.41  4345.43  4936.48
 contract_to_Sigma_contract       37917  9.0    11.76    12.31  3510.62  4594.29
 dbt_tas_mm_3T                  3605562 16.1     2.29     2.66  3622.62  4343.01
 dbt_tas_mm_2                   2567784 15.9     2.62     3.08  3715.07  4252.43
 dbm_add                        8272580 14.9  2994.23  4065.95  2994.23  4065.95
 dbt_copy                       ******* 10.8    40.44    44.15  3438.01  3913.77
 compute_Sigma_x                      1  7.0     0.00     0.00  3355.49  3356.03
 dbt_reshape                    6966747 11.7  1516.72  1791.40  2635.08  3061.90
 dbt_tas_reshape                9698574 15.4    60.60    65.43  1810.49  3059.11
 reshape_mm_small               8272580 14.9   478.54   524.59  1640.27  2674.81
 dbt_tas_reshape_buffer_obtain  9698574 16.4   199.83   213.34  1112.15  2353.55
 get_t_3c_int                   5094692  9.3    26.24    28.29  1343.73  1502.67
 dbt_tas_merge                  2567784 14.9    83.20    93.78   814.12  1279.56
 dbt_remap                       764599 11.0    70.21    75.16  1055.83  1242.21
 dbt_reserve_blocks_index       7876082 13.7    10.24    11.48   809.53   991.41
 dbt_reserve_blocks_index_array 7706357 12.7     8.56     9.63   799.06   971.65
 dbt_tas_create_split           ******* 15.9    13.60    14.75   499.88   537.02
 dbt_tas_reshape_buffer_fill    9698574 16.4   503.67   532.90   503.67   532.90
 dbt_tas_copy                   3100388 12.3   205.97   245.86   480.48   527.83
 dbt_tas_create_split_rows_or_c ******* 16.9    50.21    53.45   486.29   522.49
 reshape_mm_compatible          8272580 14.9    66.29    71.50   469.19   500.72
 dbt_destroy                    ******* 11.0   431.60   473.11   436.66   478.55
 dbt_communicate_buffer         6966747 12.7   386.76   428.51   386.76   428.51
 add_rs_to_ikp                  *******  9.7   413.71   427.46   413.71   427.46
 trafo_rs_to_ikp                  28692  8.1    12.66    13.70   407.85   420.10
 G_occ_vir                          121  8.0     0.31     0.38   359.35   387.83
 dbt_tas_distribution_new       ******* 15.7   193.66   205.11   359.12   380.29
 change_split                   ******* 15.4    21.61    22.88   311.01   336.63
 fm_to_local_tensor              146072  9.0     1.65     1.78   283.91   283.93
 add_ikp_to_rs                  *******  9.8   275.12   283.05   275.12   283.05
 mp_cart_create                 ******* 16.6   242.22   258.46   263.06   281.10
 dbt_copy_nocomm                 774135 11.0   169.49   195.85   246.99   276.09
 add_ikp_to_all_rs                26302  8.0     9.97    11.27   264.77   270.32
 add_V_L                         327680 10.0    19.46   233.86    19.46   233.86
 power                            54484  8.0    12.15    13.16   224.31   229.32
 diag_complex                     54484  9.0   212.16   216.16   212.16   216.16
 destroy_t_1d                        98  8.0     0.17     0.18   204.80   215.84
 bs_env_release                       1  2.0     0.08     0.13   175.50   211.06
 create_and_init_bs_env_for_gw        1  6.0     0.00     0.01   187.75   187.76
 parallel_gemm_cfm               280952  8.9     0.15     0.19   152.58   182.27
 parallel_gemm_cfm_cosma         280952  9.9   152.43   182.13   152.43   182.13
 mp_comm_dup                    ******* 18.5   151.87   165.51   161.51   175.95
 dbt_tas_create_new             ******* 15.2   147.90   167.16   147.90   167.16
 dbcsr_complete_redistribute     416337  9.9     6.89    10.26   132.98   152.14
 compute_3c_integrals                 1  7.0     0.04     0.04   151.12   151.13
 build_3c_integrals                   1  8.0   130.04   146.52   134.18   150.76
 fm_to_local_array                  934  8.1    24.79    25.44   132.48   133.00
 mp_sum_dm                       655403 10.0   114.24   123.36   114.24   123.36
 mp_comm_free                   ******* 15.6   113.75   121.17   113.75   121.17
 copy_dbcsr_to_fm                225058  8.3     1.21     1.28   117.26   119.86
 mp_comm_split_direct           ******* 17.9   104.02   110.59   110.70   117.77
 mp_max_i                       ******* 11.3    39.28   117.72    39.28   117.72
 compute_QP_energies                  1  7.0     0.08     0.12   111.30   112.74
 mp_sum_dm3                        1039  9.0   102.95   112.63   102.95   112.63
 trafo_to_k_and_nn                71492  8.0     0.26     0.45   110.88   112.30
 mp_alltoall_i22                 745571 10.3    87.27   107.45    87.27   107.45
 dbt_tas_communicate_buffer     ******* 17.2    91.85   102.55    91.85   102.55
 dbt_tas_reshape_communicate_bu 9698574 16.4     6.96     7.78    87.03    96.49
 dbt_permute_index              ******* 12.1    77.08    82.94    87.90    94.71
 dbt_reserve_blocks_template     774135 12.0     2.94     3.35    77.51    90.99
 reshape_mm_template            1529198 15.5    49.27    52.03    80.21    84.81
 copy_fm_to_dbcsr                191279  9.5     0.47     0.52    61.47    80.10
 scf_env_do_scf                       1  3.0     0.00     0.00    77.74    77.74
 scf_env_do_scf_inner_loop           44  4.0     0.00     0.01    77.74    77.74
 dbt_align_index                ******* 11.4    11.94    12.77    71.62    77.03
 dbm_filter                     ******* 14.8    66.83    76.07    66.83    76.07
 add_R                          *******  9.3    50.64    53.01    71.93    75.25
 qs_scf_new_mos_kp                   44  5.0     0.00     0.00    74.46    74.48
 do_general_diag_kp                  44  6.0     0.22     0.23    74.46    74.48
 local_dbt_to_global_fm              91  8.0     0.16     0.18    74.15    74.15
 dbt_tas_mp_comm                4849287 13.0     6.82     7.28    65.24    70.80
 dbt_distribution_new_expert    1821352 12.3    10.01    10.98    57.45    61.15
 fm_add_ikp_to_rs                123904  9.0    35.80    36.16    56.13    60.59
 global_matrix_to_local_matrix   146072 10.0     0.82     1.09    52.04    58.96
 mult_W_with_Minv                    30  8.0     0.47     0.51    58.49    58.55
 dbcsr_desymmetrize_deep         329234  8.6     2.34     2.80    49.89    52.77
 fm_trafo_rs_to_ikp               71492  9.0    21.08    21.59    39.59    47.75
 fm_MWM_R_t_to_local_tensor_W_R      30  8.0     0.02     0.03    45.46    45.46
 mp_cart_get                    ******* ****    41.24    44.96    41.24    44.96
 is_cell_in_index_to_cell       ******* -9.1    36.99    38.98    36.99    38.98
 mp_comm_size                   ******* -5.8    33.87    38.27    33.87    38.27
 dbcsr_finalize                 1723873 11.2     6.75     7.67    31.22    36.96
 dbm_scale                      9868348 14.4    33.39    36.75    33.39    36.75
 dbt_tas_reshape_get_coord      9698574 16.4    33.31    36.07    33.31    36.07
 dbt_create_new                  910676 11.8     6.55     7.01    33.82    35.50
 mp_cart_sub                     450195 10.3    33.09    33.16    33.09    33.16
 dos_pdos_ldos                        1  5.0     0.00     0.01    32.76    32.79
 get_V_tr_R                          34  9.0     0.09     0.10    30.68    31.05
 mp_waitall_1                   1145052 11.5    22.38    30.34    22.38    30.34
 dbt_copy_matrix_to_tensor       146072 10.0     1.83     1.96    19.95    30.31
 send_data                       146072 11.0     0.08     0.09    23.56    30.27
 communicate_buffer              146072 12.0     1.21     4.88    23.48    30.19
 cp_cfm_heevd                      6096  7.6     0.00     0.00    29.93    30.00
 cp_cfm_heevd_base                 6096  8.6    29.93    30.00    29.93    30.00
 local_dbt_to_global_mat          87451  9.0     0.54     0.59    19.67    29.69
 mp_comm_rank                   ******* -5.8    26.01    28.98    26.01    28.98
 destroy_t_2d                        62  8.0     2.77     6.40    26.07    28.93
 SOC_ev                            2344  6.0     0.03     0.03    28.82    28.84
 dbt_reserve_blocks_matrix_to_t  146072 11.0     0.60     0.63    16.90    27.27
 dbcsr_filter_anytype            653191 11.0     2.48     2.67    19.86    25.30
 mp_alltoall_i                  ******* 15.2    19.96    22.00    19.96    22.00
 local_matrix_to_global_matrix    87451 10.0     0.16     0.17    11.58    21.69
 dbt_create_3c_R1_R2                 62  8.0     2.17     2.30    18.37    19.57
 mp_sum_i                       6992664 15.9    18.26    19.47    18.26    19.47
 dbt_create_template            3106943  9.0    17.43    18.73    17.43    18.73
 mp_cart_rank                   ******* 15.9    14.20    17.96    14.20    17.96
 dbcsr_merge_all                 647692 12.0    10.74    13.09    15.24    17.74
 send_sizes_1                    146072 11.0     0.08     0.09    16.38    17.63
 heuristic_RI_regularization          1  7.0     0.00     0.00    16.75    16.75
 kpoint_density_transform            44  7.0     0.07     0.08    16.68    16.70
 dbt_create_matrix               146072 10.0     0.83     0.86    15.17    15.65
 mp_sum_l                       ******* 15.0    13.91    15.25    13.91    15.25
 dbt_pgrid_create_expert        1821355 13.3     2.16     2.43    14.18    15.08
 get_data                        146072 11.0     1.82    14.80     2.04    15.05
 dbt_tas_replicate_communicate_ 5704796 15.9     3.71     4.28    11.82    14.70
 create_and_init_bs_env               1  5.0     0.00     0.00    13.39    13.39
 compute_cfm_mo_coeff_kp_and_ei       1  6.0     0.00     0.00    13.38    13.38
 setup_cells_3c                       1  7.0     0.56     0.56    13.32    13.32
 build_3c_integral_block          38934  8.0     4.70     5.49    12.29    12.75
 set_blocks                       87451 11.0     0.67     3.24     6.09    12.37
 rskp_transform                   52088  7.2     0.75    12.07     0.75    12.07
 dbt_tas_reshape_alltoall       9698574 16.4     5.78     6.26    10.97    12.07
 dbt_nd_mp_comm                  910671 11.8     1.48     1.67     9.83    10.74
 get_Minv_Vtr_Minv_R                  1  8.0     0.02     0.02    10.71    10.74
 cp_cfm_geeig_canon                1172  7.0     0.00     0.01    10.41    10.43
 rsmat_to_kp                       7032  7.2     0.05     0.05     9.03     9.17
 dbcsr_iterator_start           3627481 11.1     7.98     8.20     8.60     8.92
 mp_isend_dv                    6125662 12.2     0.70     8.19     0.70     8.19
 cp_fm_start_copy_general        135168  7.3     0.62     1.13     7.99     8.10
 abc_contract_xsmm               102196  9.0     7.34     8.05     7.34     8.05
 dbcsr_work_create               976926 10.6     4.59     5.46     7.02     8.03
 mp_bcast_i                     ******* 17.9     6.68     7.91     6.68     7.91
 dbcsr_work_destroy_all          976926 11.5     4.22     5.13     6.38     7.63
 mp_alltoall_d11v               2236713 10.7     3.51     7.26     3.51     7.26
 -------------------------------------------------------------------------------

 The number of warnings for this run is : 1
 
 -------------------------------------------------------------------------------
  **** **** ******  **  PROGRAM ENDED AT                 2025-03-28 08:04:53.855
 ***** ** ***  *** **   PROGRAM RAN ON                                 n2lcn0109
 **    ****   ******    PROGRAM RAN BY                                  metdyn02
 ***** **    ** ** **   PROGRAM PROCESS ID                                516280
  **** **  *******  **  PROGRAM STOPPED IN /scratch/hpc-prf-metdyn/metdyn02_Remi
                                           /05_TMD_new/paperbenchmarks/regulariz
                                           ation/1e-2/9/1e-4
