 DBCSR| CPU Multiplication driver                                           XSMM (U)
 DBCSR| Multrec recursion limit                                              512 (U)
 DBCSR| Multiplication stack size                                           1000 (D)
 DBCSR| Maximum elements for images                                    UNLIMITED (U)
 DBCSR| Multiplicative factor virtual images                                   1 (U)
 DBCSR| Use multiplication densification                                       T (D)
 DBCSR| Multiplication size stacks                                             3 (U)
 DBCSR| Use memory pool for CPU allocation                                     F (U)
 DBCSR| Number of 3D layers                                               SINGLE (U)
 DBCSR| Use MPI memory allocation                                              F (U)
 DBCSR| Use RMA algorithm                                                      F (U)
 DBCSR| Use Communication thread                                               T (U)
 DBCSR| Communication thread load                                             60 (D)
 DBCSR| MPI: My process id                                                     0
 DBCSR| MPI: Number of processes                                             384
 DBCSR| OMP: Current number of threads                                         8
 DBCSR| OMP: Max number of threads                                             8
 DBCSR| Split modifier for TAS multiplication algorithm                  1.0E+00 (U)


  **** **** ******  **  PROGRAM STARTED AT               2024-10-15 19:55:40.398
 ***** ** ***  *** **   PROGRAM STARTED ON                             n2lcn0101
 **    ****   ******    PROGRAM STARTED BY                              metdyn02
 ***** **    ** ** **   PROGRAM PROCESS ID                               2912185
  **** **  *******  **  PROGRAM STARTED IN /scratch/hpc-prf-metdyn/metdyn02_Remi
                                           /03_TMD/02_MoSe2/01

 CP2K| version string:                 CP2K version 2024.2 (Development Version)
 CP2K| source code revision number:                                  git:7adf92c
 CP2K| cp2kflags: omp libint fftw3 libxc libgrpp elpa parallel scalapack mpi_f08
 CP2K|             cosma deepmd xsmm plumed2 spglib sirius libvori libbqb libvdw
 CP2K|            wxc hdf5
 CP2K| is freely available from                            https://www.cp2k.org/
 CP2K| Program compiled at                         Mon Sep 16 11:38:02 CEST 2024
 CP2K| Program compiled on                                              n2login2
 CP2K| Program compiled for                                                local
 CP2K| Data directory path    /opt/software/pc2/EB-SW/software/CP2K/2024.1-foss-
 CP2K| Input file name                                                    GW.inp

 GLOBAL| Force Environment number                                              1
 GLOBAL| Basis set file name            /pc2/groups/hpc-prf-metdyn/metdyn02_Remi
 GLOBAL| Potential file name            /pc2/groups/hpc-prf-metdyn/metdyn02_Remi
 GLOBAL| MM Potential file name                                     MM_POTENTIAL
 GLOBAL| Coordinate file name                                      __STD_INPUT__
 GLOBAL| Method name                                                        CP2K
 GLOBAL| Project name                                                       MoS2
 GLOBAL| Run type                                                         ENERGY
 GLOBAL| FFT library                                                       FFTW3
 GLOBAL| Diagonalization library                                            ELPA
 GLOBAL| DGEMM library                                                      BLAS
 GLOBAL| Minimum number of eigenvectors for ELPA usage                        16
 GLOBAL| Orthonormality check for eigenvectors                          DISABLED
 GLOBAL| Matrix multiplication library                                     COSMA
 GLOBAL| All-to-all communication in single precision                          F
 GLOBAL| FFTs using library dependent lengths                                  F
 GLOBAL| Grid backend                                                       AUTO
 GLOBAL| Global print level                                               MEDIUM
 GLOBAL| MPI I/O enabled                                                       T
 GLOBAL| Total number of message passing processes                           384
 GLOBAL| Number of threads for this process                                    8
 GLOBAL| This output is from process                                           0
 GLOBAL| Stack size for threads created by OpenMP (OMP_STACKSIZE)        default
 GLOBAL| CPU model name                          AMD EPYC 7763 64-Core Processor
 GLOBAL| CPUID                                                              1002

 MEMORY| system memory details [Kb]
 MEMORY|                        rank 0           min           max       average
 MEMORY| MemTotal           1056622248    1056622244    1056622248    1056622246
 MEMORY| MemFree            1036664100    1033942420    1041290756    1039144481
 MEMORY| Buffers                338188        226836        340776        287380
 MEMORY| Cached                9623752       6697548      12162540       7404699
 MEMORY| Slab                  3190900       1941756       3773824       3080695
 MEMORY| SReclaimable          1226196        604636       1536456       1185949
 MEMORY| MemLikelyFree      1047852236    1047574536    1048982416    1048022509


 *** Fundamental physical constants (SI units) ***

 *** Literature: B. J. Mohr and B. N. Taylor,
 ***             CODATA recommended values of the fundamental physical
 ***             constants: 2006, Web Version 5.1
 ***             http://physics.nist.gov/constants

 Speed of light in vacuum [m/s]                             2.99792458000000E+08
 Magnetic constant or permeability of vacuum [N/A**2]       1.25663706143592E-06
 Electric constant or permittivity of vacuum [F/m]          8.85418781762039E-12
 Planck constant (h) [J*s]                                  6.62606896000000E-34
 Planck constant (h-bar) [J*s]                              1.05457162825177E-34
 Elementary charge [C]                                      1.60217648700000E-19
 Electron mass [kg]                                         9.10938215000000E-31
 Electron g factor [ ]                                     -2.00231930436220E+00
 Proton mass [kg]                                           1.67262163700000E-27
 Fine-structure constant                                    7.29735253760000E-03
 Rydberg constant [1/m]                                     1.09737315685270E+07
 Avogadro constant [1/mol]                                  6.02214179000000E+23
 Boltzmann constant [J/K]                                   1.38065040000000E-23
 Atomic mass unit [kg]                                      1.66053878200000E-27
 Bohr radius [m]                                            5.29177208590000E-11

 *** Conversion factors ***

 [u] -> [a.u.]                                              1.82288848426455E+03
 [Angstrom] -> [Bohr] = [a.u.]                              1.88972613288564E+00
 [a.u.] = [Bohr] -> [Angstrom]                              5.29177208590000E-01
 [a.u.] -> [s]                                              2.41888432650478E-17
 [a.u.] -> [fs]                                             2.41888432650478E-02
 [a.u.] -> [J]                                              4.35974393937059E-18
 [a.u.] -> [N]                                              8.23872205491840E-08
 [a.u.] -> [K]                                              3.15774647902944E+05
 [a.u.] -> [kJ/mol]                                         2.62549961709828E+03
 [a.u.] -> [kcal/mol]                                       6.27509468713739E+02
 [a.u.] -> [Pa]                                             2.94210107994716E+13
 [a.u.] -> [bar]                                            2.94210107994716E+08
 [a.u.] -> [atm]                                            2.90362800883016E+08
 [a.u.] -> [eV]                                             2.72113838565563E+01
 [a.u.] -> [Hz]                                             6.57968392072181E+15
 [a.u.] -> [1/cm] (wave numbers)                            2.19474631370540E+05
 [a.u./Bohr**2] -> [1/cm]                                   5.14048714338585E+03
 

 CELL_TOP| Volume [angstrom^3]:                                       131.694613
 CELL_TOP| Vector a [angstrom     3.184     0.000     0.000   |a| =     3.184000
 CELL_TOP| Vector b [angstrom    -1.592     2.757     0.000   |b| =     3.184000
 CELL_TOP| Vector c [angstrom     0.000     0.000    15.000   |c| =    15.000000
 CELL_TOP| Angle (b,c), alpha [degree]:                                90.000000
 CELL_TOP| Angle (a,c), beta  [degree]:                                90.000000
 CELL_TOP| Angle (a,b), gamma [degree]:                               120.000000
 CELL_TOP| Numerically orthorhombic:                                          NO
 CELL_TOP| Periodicity                                                        XY

 GENERATE|  Preliminary Number of Bonds generated:                             0
 GENERATE|  Achieved consistency in connectivity generation.

 CELL| Volume [angstrom^3]:                                           131.694613
 CELL| Vector a [angstrom]:       3.184     0.000     0.000   |a| =     3.184000
 CELL| Vector b [angstrom]:      -1.592     2.757     0.000   |b| =     3.184000
 CELL| Vector c [angstrom]:       0.000     0.000    15.000   |c| =    15.000000
 CELL| Angle (b,c), alpha [degree]:                                    90.000000
 CELL| Angle (a,c), beta  [degree]:                                    90.000000
 CELL| Angle (a,b), gamma [degree]:                                   120.000000
 CELL| Numerically orthorhombic:                                              NO
 CELL| Periodicity                                                            XY

 CELL_REF| Volume [angstrom^3]:                                       131.694613
 CELL_REF| Vector a [angstrom     3.184     0.000     0.000   |a| =     3.184000
 CELL_REF| Vector b [angstrom    -1.592     2.757     0.000   |b| =     3.184000
 CELL_REF| Vector c [angstrom     0.000     0.000    15.000   |c| =    15.000000
 CELL_REF| Angle (b,c), alpha [degree]:                                90.000000
 CELL_REF| Angle (a,c), beta  [degree]:                                90.000000
 CELL_REF| Angle (a,b), gamma [degree]:                               120.000000
 CELL_REF| Numerically orthorhombic:                                          NO
 CELL_REF| Periodicity                                                        XY

 *******************************************************************************
                                    Kpoints
 *******************************************************************************
 BRILLOUIN| K-point scheme                                        Monkhorst-Pack
 BRILLOUIN| K-Point grid                                            36   36    1
 BRILLOUIN| Accuracy in Symmetry determination                      0.100000E-05
 BRILLOUIN| K-Point point group symmetrization                               OFF
 BRILLOUIN| Wavefunction type                                            COMPLEX
 BRILLOUIN| List of Kpoints [2 Pi/Bohr]                                      648
 BRILLOUIN| Number           Weight            X              Y              Z
 BRILLOUIN|     1           0.00154       -0.48611       -0.48611        0.00000
 BRILLOUIN|     2           0.00154       -0.48611       -0.45833        0.00000
 BRILLOUIN|     3           0.00154       -0.48611       -0.43056        0.00000
 BRILLOUIN|     4           0.00154       -0.48611       -0.40278        0.00000
 BRILLOUIN|     5           0.00154       -0.48611       -0.37500        0.00000
 BRILLOUIN|     6           0.00154       -0.48611       -0.34722        0.00000
 BRILLOUIN|     7           0.00154       -0.48611       -0.31944        0.00000
 BRILLOUIN|     8           0.00154       -0.48611       -0.29167        0.00000
 BRILLOUIN|     9           0.00154       -0.48611       -0.26389        0.00000
 BRILLOUIN|    10           0.00154       -0.48611       -0.23611        0.00000
 BRILLOUIN|    11           0.00154       -0.48611       -0.20833        0.00000
 BRILLOUIN|    12           0.00154       -0.48611       -0.18056        0.00000
 BRILLOUIN|    13           0.00154       -0.48611       -0.15278        0.00000
 BRILLOUIN|    14           0.00154       -0.48611       -0.12500        0.00000
 BRILLOUIN|    15           0.00154       -0.48611       -0.09722        0.00000
 BRILLOUIN|    16           0.00154       -0.48611       -0.06944        0.00000
 BRILLOUIN|    17           0.00154       -0.48611       -0.04167        0.00000
 BRILLOUIN|    18           0.00154       -0.48611       -0.01389        0.00000
 BRILLOUIN|    19           0.00154       -0.48611        0.01389        0.00000
 BRILLOUIN|    20           0.00154       -0.48611        0.04167        0.00000
 BRILLOUIN|    21           0.00154       -0.48611        0.06944        0.00000
 BRILLOUIN|    22           0.00154       -0.48611        0.09722        0.00000
 BRILLOUIN|    23           0.00154       -0.48611        0.12500        0.00000
 BRILLOUIN|    24           0.00154       -0.48611        0.15278        0.00000
 BRILLOUIN|    25           0.00154       -0.48611        0.18056        0.00000
 BRILLOUIN|    26           0.00154       -0.48611        0.20833        0.00000
 BRILLOUIN|    27           0.00154       -0.48611        0.23611        0.00000
 BRILLOUIN|    28           0.00154       -0.48611        0.26389        0.00000
 BRILLOUIN|    29           0.00154       -0.48611        0.29167        0.00000
 BRILLOUIN|    30           0.00154       -0.48611        0.31944        0.00000
 BRILLOUIN|    31           0.00154       -0.48611        0.34722        0.00000
 BRILLOUIN|    32           0.00154       -0.48611        0.37500        0.00000
 BRILLOUIN|    33           0.00154       -0.48611        0.40278        0.00000
 BRILLOUIN|    34           0.00154       -0.48611        0.43056        0.00000
 BRILLOUIN|    35           0.00154       -0.48611        0.45833        0.00000
 BRILLOUIN|    36           0.00154       -0.48611        0.48611        0.00000
 BRILLOUIN|    37           0.00154       -0.45833       -0.48611        0.00000
 BRILLOUIN|    38           0.00154       -0.45833       -0.45833        0.00000
 BRILLOUIN|    39           0.00154       -0.45833       -0.43056        0.00000
 BRILLOUIN|    40           0.00154       -0.45833       -0.40278        0.00000
 BRILLOUIN|    41           0.00154       -0.45833       -0.37500        0.00000
 BRILLOUIN|    42           0.00154       -0.45833       -0.34722        0.00000
 BRILLOUIN|    43           0.00154       -0.45833       -0.31944        0.00000
 BRILLOUIN|    44           0.00154       -0.45833       -0.29167        0.00000
 BRILLOUIN|    45           0.00154       -0.45833       -0.26389        0.00000
 BRILLOUIN|    46           0.00154       -0.45833       -0.23611        0.00000
 BRILLOUIN|    47           0.00154       -0.45833       -0.20833        0.00000
 BRILLOUIN|    48           0.00154       -0.45833       -0.18056        0.00000
 BRILLOUIN|    49           0.00154       -0.45833       -0.15278        0.00000
 BRILLOUIN|    50           0.00154       -0.45833       -0.12500        0.00000
 BRILLOUIN|    51           0.00154       -0.45833       -0.09722        0.00000
 BRILLOUIN|    52           0.00154       -0.45833       -0.06944        0.00000
 BRILLOUIN|    53           0.00154       -0.45833       -0.04167        0.00000
 BRILLOUIN|    54           0.00154       -0.45833       -0.01389        0.00000
 BRILLOUIN|    55           0.00154       -0.45833        0.01389        0.00000
 BRILLOUIN|    56           0.00154       -0.45833        0.04167        0.00000
 BRILLOUIN|    57           0.00154       -0.45833        0.06944        0.00000
 BRILLOUIN|    58           0.00154       -0.45833        0.09722        0.00000
 BRILLOUIN|    59           0.00154       -0.45833        0.12500        0.00000
 BRILLOUIN|    60           0.00154       -0.45833        0.15278        0.00000
 BRILLOUIN|    61           0.00154       -0.45833        0.18056        0.00000
 BRILLOUIN|    62           0.00154       -0.45833        0.20833        0.00000
 BRILLOUIN|    63           0.00154       -0.45833        0.23611        0.00000
 BRILLOUIN|    64           0.00154       -0.45833        0.26389        0.00000
 BRILLOUIN|    65           0.00154       -0.45833        0.29167        0.00000
 BRILLOUIN|    66           0.00154       -0.45833        0.31944        0.00000
 BRILLOUIN|    67           0.00154       -0.45833        0.34722        0.00000
 BRILLOUIN|    68           0.00154       -0.45833        0.37500        0.00000
 BRILLOUIN|    69           0.00154       -0.45833        0.40278        0.00000
 BRILLOUIN|    70           0.00154       -0.45833        0.43056        0.00000
 BRILLOUIN|    71           0.00154       -0.45833        0.45833        0.00000
 BRILLOUIN|    72           0.00154       -0.45833        0.48611        0.00000
 BRILLOUIN|    73           0.00154       -0.43056       -0.48611        0.00000
 BRILLOUIN|    74           0.00154       -0.43056       -0.45833        0.00000
 BRILLOUIN|    75           0.00154       -0.43056       -0.43056        0.00000
 BRILLOUIN|    76           0.00154       -0.43056       -0.40278        0.00000
 BRILLOUIN|    77           0.00154       -0.43056       -0.37500        0.00000
 BRILLOUIN|    78           0.00154       -0.43056       -0.34722        0.00000
 BRILLOUIN|    79           0.00154       -0.43056       -0.31944        0.00000
 BRILLOUIN|    80           0.00154       -0.43056       -0.29167        0.00000
 BRILLOUIN|    81           0.00154       -0.43056       -0.26389        0.00000
 BRILLOUIN|    82           0.00154       -0.43056       -0.23611        0.00000
 BRILLOUIN|    83           0.00154       -0.43056       -0.20833        0.00000
 BRILLOUIN|    84           0.00154       -0.43056       -0.18056        0.00000
 BRILLOUIN|    85           0.00154       -0.43056       -0.15278        0.00000
 BRILLOUIN|    86           0.00154       -0.43056       -0.12500        0.00000
 BRILLOUIN|    87           0.00154       -0.43056       -0.09722        0.00000
 BRILLOUIN|    88           0.00154       -0.43056       -0.06944        0.00000
 BRILLOUIN|    89           0.00154       -0.43056       -0.04167        0.00000
 BRILLOUIN|    90           0.00154       -0.43056       -0.01389        0.00000
 BRILLOUIN|    91           0.00154       -0.43056        0.01389        0.00000
 BRILLOUIN|    92           0.00154       -0.43056        0.04167        0.00000
 BRILLOUIN|    93           0.00154       -0.43056        0.06944        0.00000
 BRILLOUIN|    94           0.00154       -0.43056        0.09722        0.00000
 BRILLOUIN|    95           0.00154       -0.43056        0.12500        0.00000
 BRILLOUIN|    96           0.00154       -0.43056        0.15278        0.00000
 BRILLOUIN|    97           0.00154       -0.43056        0.18056        0.00000
 BRILLOUIN|    98           0.00154       -0.43056        0.20833        0.00000
 BRILLOUIN|    99           0.00154       -0.43056        0.23611        0.00000
 BRILLOUIN|   100           0.00154       -0.43056        0.26389        0.00000
 BRILLOUIN|   101           0.00154       -0.43056        0.29167        0.00000
 BRILLOUIN|   102           0.00154       -0.43056        0.31944        0.00000
 BRILLOUIN|   103           0.00154       -0.43056        0.34722        0.00000
 BRILLOUIN|   104           0.00154       -0.43056        0.37500        0.00000
 BRILLOUIN|   105           0.00154       -0.43056        0.40278        0.00000
 BRILLOUIN|   106           0.00154       -0.43056        0.43056        0.00000
 BRILLOUIN|   107           0.00154       -0.43056        0.45833        0.00000
 BRILLOUIN|   108           0.00154       -0.43056        0.48611        0.00000
 BRILLOUIN|   109           0.00154       -0.40278       -0.48611        0.00000
 BRILLOUIN|   110           0.00154       -0.40278       -0.45833        0.00000
 BRILLOUIN|   111           0.00154       -0.40278       -0.43056        0.00000
 BRILLOUIN|   112           0.00154       -0.40278       -0.40278        0.00000
 BRILLOUIN|   113           0.00154       -0.40278       -0.37500        0.00000
 BRILLOUIN|   114           0.00154       -0.40278       -0.34722        0.00000
 BRILLOUIN|   115           0.00154       -0.40278       -0.31944        0.00000
 BRILLOUIN|   116           0.00154       -0.40278       -0.29167        0.00000
 BRILLOUIN|   117           0.00154       -0.40278       -0.26389        0.00000
 BRILLOUIN|   118           0.00154       -0.40278       -0.23611        0.00000
 BRILLOUIN|   119           0.00154       -0.40278       -0.20833        0.00000
 BRILLOUIN|   120           0.00154       -0.40278       -0.18056        0.00000
 BRILLOUIN|   121           0.00154       -0.40278       -0.15278        0.00000
 BRILLOUIN|   122           0.00154       -0.40278       -0.12500        0.00000
 BRILLOUIN|   123           0.00154       -0.40278       -0.09722        0.00000
 BRILLOUIN|   124           0.00154       -0.40278       -0.06944        0.00000
 BRILLOUIN|   125           0.00154       -0.40278       -0.04167        0.00000
 BRILLOUIN|   126           0.00154       -0.40278       -0.01389        0.00000
 BRILLOUIN|   127           0.00154       -0.40278        0.01389        0.00000
 BRILLOUIN|   128           0.00154       -0.40278        0.04167        0.00000
 BRILLOUIN|   129           0.00154       -0.40278        0.06944        0.00000
 BRILLOUIN|   130           0.00154       -0.40278        0.09722        0.00000
 BRILLOUIN|   131           0.00154       -0.40278        0.12500        0.00000
 BRILLOUIN|   132           0.00154       -0.40278        0.15278        0.00000
 BRILLOUIN|   133           0.00154       -0.40278        0.18056        0.00000
 BRILLOUIN|   134           0.00154       -0.40278        0.20833        0.00000
 BRILLOUIN|   135           0.00154       -0.40278        0.23611        0.00000
 BRILLOUIN|   136           0.00154       -0.40278        0.26389        0.00000
 BRILLOUIN|   137           0.00154       -0.40278        0.29167        0.00000
 BRILLOUIN|   138           0.00154       -0.40278        0.31944        0.00000
 BRILLOUIN|   139           0.00154       -0.40278        0.34722        0.00000
 BRILLOUIN|   140           0.00154       -0.40278        0.37500        0.00000
 BRILLOUIN|   141           0.00154       -0.40278        0.40278        0.00000
 BRILLOUIN|   142           0.00154       -0.40278        0.43056        0.00000
 BRILLOUIN|   143           0.00154       -0.40278        0.45833        0.00000
 BRILLOUIN|   144           0.00154       -0.40278        0.48611        0.00000
 BRILLOUIN|   145           0.00154       -0.37500       -0.48611        0.00000
 BRILLOUIN|   146           0.00154       -0.37500       -0.45833        0.00000
 BRILLOUIN|   147           0.00154       -0.37500       -0.43056        0.00000
 BRILLOUIN|   148           0.00154       -0.37500       -0.40278        0.00000
 BRILLOUIN|   149           0.00154       -0.37500       -0.37500        0.00000
 BRILLOUIN|   150           0.00154       -0.37500       -0.34722        0.00000
 BRILLOUIN|   151           0.00154       -0.37500       -0.31944        0.00000
 BRILLOUIN|   152           0.00154       -0.37500       -0.29167        0.00000
 BRILLOUIN|   153           0.00154       -0.37500       -0.26389        0.00000
 BRILLOUIN|   154           0.00154       -0.37500       -0.23611        0.00000
 BRILLOUIN|   155           0.00154       -0.37500       -0.20833        0.00000
 BRILLOUIN|   156           0.00154       -0.37500       -0.18056        0.00000
 BRILLOUIN|   157           0.00154       -0.37500       -0.15278        0.00000
 BRILLOUIN|   158           0.00154       -0.37500       -0.12500        0.00000
 BRILLOUIN|   159           0.00154       -0.37500       -0.09722        0.00000
 BRILLOUIN|   160           0.00154       -0.37500       -0.06944        0.00000
 BRILLOUIN|   161           0.00154       -0.37500       -0.04167        0.00000
 BRILLOUIN|   162           0.00154       -0.37500       -0.01389        0.00000
 BRILLOUIN|   163           0.00154       -0.37500        0.01389        0.00000
 BRILLOUIN|   164           0.00154       -0.37500        0.04167        0.00000
 BRILLOUIN|   165           0.00154       -0.37500        0.06944        0.00000
 BRILLOUIN|   166           0.00154       -0.37500        0.09722        0.00000
 BRILLOUIN|   167           0.00154       -0.37500        0.12500        0.00000
 BRILLOUIN|   168           0.00154       -0.37500        0.15278        0.00000
 BRILLOUIN|   169           0.00154       -0.37500        0.18056        0.00000
 BRILLOUIN|   170           0.00154       -0.37500        0.20833        0.00000
 BRILLOUIN|   171           0.00154       -0.37500        0.23611        0.00000
 BRILLOUIN|   172           0.00154       -0.37500        0.26389        0.00000
 BRILLOUIN|   173           0.00154       -0.37500        0.29167        0.00000
 BRILLOUIN|   174           0.00154       -0.37500        0.31944        0.00000
 BRILLOUIN|   175           0.00154       -0.37500        0.34722        0.00000
 BRILLOUIN|   176           0.00154       -0.37500        0.37500        0.00000
 BRILLOUIN|   177           0.00154       -0.37500        0.40278        0.00000
 BRILLOUIN|   178           0.00154       -0.37500        0.43056        0.00000
 BRILLOUIN|   179           0.00154       -0.37500        0.45833        0.00000
 BRILLOUIN|   180           0.00154       -0.37500        0.48611        0.00000
 BRILLOUIN|   181           0.00154       -0.34722       -0.48611        0.00000
 BRILLOUIN|   182           0.00154       -0.34722       -0.45833        0.00000
 BRILLOUIN|   183           0.00154       -0.34722       -0.43056        0.00000
 BRILLOUIN|   184           0.00154       -0.34722       -0.40278        0.00000
 BRILLOUIN|   185           0.00154       -0.34722       -0.37500        0.00000
 BRILLOUIN|   186           0.00154       -0.34722       -0.34722        0.00000
 BRILLOUIN|   187           0.00154       -0.34722       -0.31944        0.00000
 BRILLOUIN|   188           0.00154       -0.34722       -0.29167        0.00000
 BRILLOUIN|   189           0.00154       -0.34722       -0.26389        0.00000
 BRILLOUIN|   190           0.00154       -0.34722       -0.23611        0.00000
 BRILLOUIN|   191           0.00154       -0.34722       -0.20833        0.00000
 BRILLOUIN|   192           0.00154       -0.34722       -0.18056        0.00000
 BRILLOUIN|   193           0.00154       -0.34722       -0.15278        0.00000
 BRILLOUIN|   194           0.00154       -0.34722       -0.12500        0.00000
 BRILLOUIN|   195           0.00154       -0.34722       -0.09722        0.00000
 BRILLOUIN|   196           0.00154       -0.34722       -0.06944        0.00000
 BRILLOUIN|   197           0.00154       -0.34722       -0.04167        0.00000
 BRILLOUIN|   198           0.00154       -0.34722       -0.01389        0.00000
 BRILLOUIN|   199           0.00154       -0.34722        0.01389        0.00000
 BRILLOUIN|   200           0.00154       -0.34722        0.04167        0.00000
 BRILLOUIN|   201           0.00154       -0.34722        0.06944        0.00000
 BRILLOUIN|   202           0.00154       -0.34722        0.09722        0.00000
 BRILLOUIN|   203           0.00154       -0.34722        0.12500        0.00000
 BRILLOUIN|   204           0.00154       -0.34722        0.15278        0.00000
 BRILLOUIN|   205           0.00154       -0.34722        0.18056        0.00000
 BRILLOUIN|   206           0.00154       -0.34722        0.20833        0.00000
 BRILLOUIN|   207           0.00154       -0.34722        0.23611        0.00000
 BRILLOUIN|   208           0.00154       -0.34722        0.26389        0.00000
 BRILLOUIN|   209           0.00154       -0.34722        0.29167        0.00000
 BRILLOUIN|   210           0.00154       -0.34722        0.31944        0.00000
 BRILLOUIN|   211           0.00154       -0.34722        0.34722        0.00000
 BRILLOUIN|   212           0.00154       -0.34722        0.37500        0.00000
 BRILLOUIN|   213           0.00154       -0.34722        0.40278        0.00000
 BRILLOUIN|   214           0.00154       -0.34722        0.43056        0.00000
 BRILLOUIN|   215           0.00154       -0.34722        0.45833        0.00000
 BRILLOUIN|   216           0.00154       -0.34722        0.48611        0.00000
 BRILLOUIN|   217           0.00154       -0.31944       -0.48611        0.00000
 BRILLOUIN|   218           0.00154       -0.31944       -0.45833        0.00000
 BRILLOUIN|   219           0.00154       -0.31944       -0.43056        0.00000
 BRILLOUIN|   220           0.00154       -0.31944       -0.40278        0.00000
 BRILLOUIN|   221           0.00154       -0.31944       -0.37500        0.00000
 BRILLOUIN|   222           0.00154       -0.31944       -0.34722        0.00000
 BRILLOUIN|   223           0.00154       -0.31944       -0.31944        0.00000
 BRILLOUIN|   224           0.00154       -0.31944       -0.29167        0.00000
 BRILLOUIN|   225           0.00154       -0.31944       -0.26389        0.00000
 BRILLOUIN|   226           0.00154       -0.31944       -0.23611        0.00000
 BRILLOUIN|   227           0.00154       -0.31944       -0.20833        0.00000
 BRILLOUIN|   228           0.00154       -0.31944       -0.18056        0.00000
 BRILLOUIN|   229           0.00154       -0.31944       -0.15278        0.00000
 BRILLOUIN|   230           0.00154       -0.31944       -0.12500        0.00000
 BRILLOUIN|   231           0.00154       -0.31944       -0.09722        0.00000
 BRILLOUIN|   232           0.00154       -0.31944       -0.06944        0.00000
 BRILLOUIN|   233           0.00154       -0.31944       -0.04167        0.00000
 BRILLOUIN|   234           0.00154       -0.31944       -0.01389        0.00000
 BRILLOUIN|   235           0.00154       -0.31944        0.01389        0.00000
 BRILLOUIN|   236           0.00154       -0.31944        0.04167        0.00000
 BRILLOUIN|   237           0.00154       -0.31944        0.06944        0.00000
 BRILLOUIN|   238           0.00154       -0.31944        0.09722        0.00000
 BRILLOUIN|   239           0.00154       -0.31944        0.12500        0.00000
 BRILLOUIN|   240           0.00154       -0.31944        0.15278        0.00000
 BRILLOUIN|   241           0.00154       -0.31944        0.18056        0.00000
 BRILLOUIN|   242           0.00154       -0.31944        0.20833        0.00000
 BRILLOUIN|   243           0.00154       -0.31944        0.23611        0.00000
 BRILLOUIN|   244           0.00154       -0.31944        0.26389        0.00000
 BRILLOUIN|   245           0.00154       -0.31944        0.29167        0.00000
 BRILLOUIN|   246           0.00154       -0.31944        0.31944        0.00000
 BRILLOUIN|   247           0.00154       -0.31944        0.34722        0.00000
 BRILLOUIN|   248           0.00154       -0.31944        0.37500        0.00000
 BRILLOUIN|   249           0.00154       -0.31944        0.40278        0.00000
 BRILLOUIN|   250           0.00154       -0.31944        0.43056        0.00000
 BRILLOUIN|   251           0.00154       -0.31944        0.45833        0.00000
 BRILLOUIN|   252           0.00154       -0.31944        0.48611        0.00000
 BRILLOUIN|   253           0.00154       -0.29167       -0.48611        0.00000
 BRILLOUIN|   254           0.00154       -0.29167       -0.45833        0.00000
 BRILLOUIN|   255           0.00154       -0.29167       -0.43056        0.00000
 BRILLOUIN|   256           0.00154       -0.29167       -0.40278        0.00000
 BRILLOUIN|   257           0.00154       -0.29167       -0.37500        0.00000
 BRILLOUIN|   258           0.00154       -0.29167       -0.34722        0.00000
 BRILLOUIN|   259           0.00154       -0.29167       -0.31944        0.00000
 BRILLOUIN|   260           0.00154       -0.29167       -0.29167        0.00000
 BRILLOUIN|   261           0.00154       -0.29167       -0.26389        0.00000
 BRILLOUIN|   262           0.00154       -0.29167       -0.23611        0.00000
 BRILLOUIN|   263           0.00154       -0.29167       -0.20833        0.00000
 BRILLOUIN|   264           0.00154       -0.29167       -0.18056        0.00000
 BRILLOUIN|   265           0.00154       -0.29167       -0.15278        0.00000
 BRILLOUIN|   266           0.00154       -0.29167       -0.12500        0.00000
 BRILLOUIN|   267           0.00154       -0.29167       -0.09722        0.00000
 BRILLOUIN|   268           0.00154       -0.29167       -0.06944        0.00000
 BRILLOUIN|   269           0.00154       -0.29167       -0.04167        0.00000
 BRILLOUIN|   270           0.00154       -0.29167       -0.01389        0.00000
 BRILLOUIN|   271           0.00154       -0.29167        0.01389        0.00000
 BRILLOUIN|   272           0.00154       -0.29167        0.04167        0.00000
 BRILLOUIN|   273           0.00154       -0.29167        0.06944        0.00000
 BRILLOUIN|   274           0.00154       -0.29167        0.09722        0.00000
 BRILLOUIN|   275           0.00154       -0.29167        0.12500        0.00000
 BRILLOUIN|   276           0.00154       -0.29167        0.15278        0.00000
 BRILLOUIN|   277           0.00154       -0.29167        0.18056        0.00000
 BRILLOUIN|   278           0.00154       -0.29167        0.20833        0.00000
 BRILLOUIN|   279           0.00154       -0.29167        0.23611        0.00000
 BRILLOUIN|   280           0.00154       -0.29167        0.26389        0.00000
 BRILLOUIN|   281           0.00154       -0.29167        0.29167        0.00000
 BRILLOUIN|   282           0.00154       -0.29167        0.31944        0.00000
 BRILLOUIN|   283           0.00154       -0.29167        0.34722        0.00000
 BRILLOUIN|   284           0.00154       -0.29167        0.37500        0.00000
 BRILLOUIN|   285           0.00154       -0.29167        0.40278        0.00000
 BRILLOUIN|   286           0.00154       -0.29167        0.43056        0.00000
 BRILLOUIN|   287           0.00154       -0.29167        0.45833        0.00000
 BRILLOUIN|   288           0.00154       -0.29167        0.48611        0.00000
 BRILLOUIN|   289           0.00154       -0.26389       -0.48611        0.00000
 BRILLOUIN|   290           0.00154       -0.26389       -0.45833        0.00000
 BRILLOUIN|   291           0.00154       -0.26389       -0.43056        0.00000
 BRILLOUIN|   292           0.00154       -0.26389       -0.40278        0.00000
 BRILLOUIN|   293           0.00154       -0.26389       -0.37500        0.00000
 BRILLOUIN|   294           0.00154       -0.26389       -0.34722        0.00000
 BRILLOUIN|   295           0.00154       -0.26389       -0.31944        0.00000
 BRILLOUIN|   296           0.00154       -0.26389       -0.29167        0.00000
 BRILLOUIN|   297           0.00154       -0.26389       -0.26389        0.00000
 BRILLOUIN|   298           0.00154       -0.26389       -0.23611        0.00000
 BRILLOUIN|   299           0.00154       -0.26389       -0.20833        0.00000
 BRILLOUIN|   300           0.00154       -0.26389       -0.18056        0.00000
 BRILLOUIN|   301           0.00154       -0.26389       -0.15278        0.00000
 BRILLOUIN|   302           0.00154       -0.26389       -0.12500        0.00000
 BRILLOUIN|   303           0.00154       -0.26389       -0.09722        0.00000
 BRILLOUIN|   304           0.00154       -0.26389       -0.06944        0.00000
 BRILLOUIN|   305           0.00154       -0.26389       -0.04167        0.00000
 BRILLOUIN|   306           0.00154       -0.26389       -0.01389        0.00000
 BRILLOUIN|   307           0.00154       -0.26389        0.01389        0.00000
 BRILLOUIN|   308           0.00154       -0.26389        0.04167        0.00000
 BRILLOUIN|   309           0.00154       -0.26389        0.06944        0.00000
 BRILLOUIN|   310           0.00154       -0.26389        0.09722        0.00000
 BRILLOUIN|   311           0.00154       -0.26389        0.12500        0.00000
 BRILLOUIN|   312           0.00154       -0.26389        0.15278        0.00000
 BRILLOUIN|   313           0.00154       -0.26389        0.18056        0.00000
 BRILLOUIN|   314           0.00154       -0.26389        0.20833        0.00000
 BRILLOUIN|   315           0.00154       -0.26389        0.23611        0.00000
 BRILLOUIN|   316           0.00154       -0.26389        0.26389        0.00000
 BRILLOUIN|   317           0.00154       -0.26389        0.29167        0.00000
 BRILLOUIN|   318           0.00154       -0.26389        0.31944        0.00000
 BRILLOUIN|   319           0.00154       -0.26389        0.34722        0.00000
 BRILLOUIN|   320           0.00154       -0.26389        0.37500        0.00000
 BRILLOUIN|   321           0.00154       -0.26389        0.40278        0.00000
 BRILLOUIN|   322           0.00154       -0.26389        0.43056        0.00000
 BRILLOUIN|   323           0.00154       -0.26389        0.45833        0.00000
 BRILLOUIN|   324           0.00154       -0.26389        0.48611        0.00000
 BRILLOUIN|   325           0.00154       -0.23611       -0.48611        0.00000
 BRILLOUIN|   326           0.00154       -0.23611       -0.45833        0.00000
 BRILLOUIN|   327           0.00154       -0.23611       -0.43056        0.00000
 BRILLOUIN|   328           0.00154       -0.23611       -0.40278        0.00000
 BRILLOUIN|   329           0.00154       -0.23611       -0.37500        0.00000
 BRILLOUIN|   330           0.00154       -0.23611       -0.34722        0.00000
 BRILLOUIN|   331           0.00154       -0.23611       -0.31944        0.00000
 BRILLOUIN|   332           0.00154       -0.23611       -0.29167        0.00000
 BRILLOUIN|   333           0.00154       -0.23611       -0.26389        0.00000
 BRILLOUIN|   334           0.00154       -0.23611       -0.23611        0.00000
 BRILLOUIN|   335           0.00154       -0.23611       -0.20833        0.00000
 BRILLOUIN|   336           0.00154       -0.23611       -0.18056        0.00000
 BRILLOUIN|   337           0.00154       -0.23611       -0.15278        0.00000
 BRILLOUIN|   338           0.00154       -0.23611       -0.12500        0.00000
 BRILLOUIN|   339           0.00154       -0.23611       -0.09722        0.00000
 BRILLOUIN|   340           0.00154       -0.23611       -0.06944        0.00000
 BRILLOUIN|   341           0.00154       -0.23611       -0.04167        0.00000
 BRILLOUIN|   342           0.00154       -0.23611       -0.01389        0.00000
 BRILLOUIN|   343           0.00154       -0.23611        0.01389        0.00000
 BRILLOUIN|   344           0.00154       -0.23611        0.04167        0.00000
 BRILLOUIN|   345           0.00154       -0.23611        0.06944        0.00000
 BRILLOUIN|   346           0.00154       -0.23611        0.09722        0.00000
 BRILLOUIN|   347           0.00154       -0.23611        0.12500        0.00000
 BRILLOUIN|   348           0.00154       -0.23611        0.15278        0.00000
 BRILLOUIN|   349           0.00154       -0.23611        0.18056        0.00000
 BRILLOUIN|   350           0.00154       -0.23611        0.20833        0.00000
 BRILLOUIN|   351           0.00154       -0.23611        0.23611        0.00000
 BRILLOUIN|   352           0.00154       -0.23611        0.26389        0.00000
 BRILLOUIN|   353           0.00154       -0.23611        0.29167        0.00000
 BRILLOUIN|   354           0.00154       -0.23611        0.31944        0.00000
 BRILLOUIN|   355           0.00154       -0.23611        0.34722        0.00000
 BRILLOUIN|   356           0.00154       -0.23611        0.37500        0.00000
 BRILLOUIN|   357           0.00154       -0.23611        0.40278        0.00000
 BRILLOUIN|   358           0.00154       -0.23611        0.43056        0.00000
 BRILLOUIN|   359           0.00154       -0.23611        0.45833        0.00000
 BRILLOUIN|   360           0.00154       -0.23611        0.48611        0.00000
 BRILLOUIN|   361           0.00154       -0.20833       -0.48611        0.00000
 BRILLOUIN|   362           0.00154       -0.20833       -0.45833        0.00000
 BRILLOUIN|   363           0.00154       -0.20833       -0.43056        0.00000
 BRILLOUIN|   364           0.00154       -0.20833       -0.40278        0.00000
 BRILLOUIN|   365           0.00154       -0.20833       -0.37500        0.00000
 BRILLOUIN|   366           0.00154       -0.20833       -0.34722        0.00000
 BRILLOUIN|   367           0.00154       -0.20833       -0.31944        0.00000
 BRILLOUIN|   368           0.00154       -0.20833       -0.29167        0.00000
 BRILLOUIN|   369           0.00154       -0.20833       -0.26389        0.00000
 BRILLOUIN|   370           0.00154       -0.20833       -0.23611        0.00000
 BRILLOUIN|   371           0.00154       -0.20833       -0.20833        0.00000
 BRILLOUIN|   372           0.00154       -0.20833       -0.18056        0.00000
 BRILLOUIN|   373           0.00154       -0.20833       -0.15278        0.00000
 BRILLOUIN|   374           0.00154       -0.20833       -0.12500        0.00000
 BRILLOUIN|   375           0.00154       -0.20833       -0.09722        0.00000
 BRILLOUIN|   376           0.00154       -0.20833       -0.06944        0.00000
 BRILLOUIN|   377           0.00154       -0.20833       -0.04167        0.00000
 BRILLOUIN|   378           0.00154       -0.20833       -0.01389        0.00000
 BRILLOUIN|   379           0.00154       -0.20833        0.01389        0.00000
 BRILLOUIN|   380           0.00154       -0.20833        0.04167        0.00000
 BRILLOUIN|   381           0.00154       -0.20833        0.06944        0.00000
 BRILLOUIN|   382           0.00154       -0.20833        0.09722        0.00000
 BRILLOUIN|   383           0.00154       -0.20833        0.12500        0.00000
 BRILLOUIN|   384           0.00154       -0.20833        0.15278        0.00000
 BRILLOUIN|   385           0.00154       -0.20833        0.18056        0.00000
 BRILLOUIN|   386           0.00154       -0.20833        0.20833        0.00000
 BRILLOUIN|   387           0.00154       -0.20833        0.23611        0.00000
 BRILLOUIN|   388           0.00154       -0.20833        0.26389        0.00000
 BRILLOUIN|   389           0.00154       -0.20833        0.29167        0.00000
 BRILLOUIN|   390           0.00154       -0.20833        0.31944        0.00000
 BRILLOUIN|   391           0.00154       -0.20833        0.34722        0.00000
 BRILLOUIN|   392           0.00154       -0.20833        0.37500        0.00000
 BRILLOUIN|   393           0.00154       -0.20833        0.40278        0.00000
 BRILLOUIN|   394           0.00154       -0.20833        0.43056        0.00000
 BRILLOUIN|   395           0.00154       -0.20833        0.45833        0.00000
 BRILLOUIN|   396           0.00154       -0.20833        0.48611        0.00000
 BRILLOUIN|   397           0.00154       -0.18056       -0.48611        0.00000
 BRILLOUIN|   398           0.00154       -0.18056       -0.45833        0.00000
 BRILLOUIN|   399           0.00154       -0.18056       -0.43056        0.00000
 BRILLOUIN|   400           0.00154       -0.18056       -0.40278        0.00000
 BRILLOUIN|   401           0.00154       -0.18056       -0.37500        0.00000
 BRILLOUIN|   402           0.00154       -0.18056       -0.34722        0.00000
 BRILLOUIN|   403           0.00154       -0.18056       -0.31944        0.00000
 BRILLOUIN|   404           0.00154       -0.18056       -0.29167        0.00000
 BRILLOUIN|   405           0.00154       -0.18056       -0.26389        0.00000
 BRILLOUIN|   406           0.00154       -0.18056       -0.23611        0.00000
 BRILLOUIN|   407           0.00154       -0.18056       -0.20833        0.00000
 BRILLOUIN|   408           0.00154       -0.18056       -0.18056        0.00000
 BRILLOUIN|   409           0.00154       -0.18056       -0.15278        0.00000
 BRILLOUIN|   410           0.00154       -0.18056       -0.12500        0.00000
 BRILLOUIN|   411           0.00154       -0.18056       -0.09722        0.00000
 BRILLOUIN|   412           0.00154       -0.18056       -0.06944        0.00000
 BRILLOUIN|   413           0.00154       -0.18056       -0.04167        0.00000
 BRILLOUIN|   414           0.00154       -0.18056       -0.01389        0.00000
 BRILLOUIN|   415           0.00154       -0.18056        0.01389        0.00000
 BRILLOUIN|   416           0.00154       -0.18056        0.04167        0.00000
 BRILLOUIN|   417           0.00154       -0.18056        0.06944        0.00000
 BRILLOUIN|   418           0.00154       -0.18056        0.09722        0.00000
 BRILLOUIN|   419           0.00154       -0.18056        0.12500        0.00000
 BRILLOUIN|   420           0.00154       -0.18056        0.15278        0.00000
 BRILLOUIN|   421           0.00154       -0.18056        0.18056        0.00000
 BRILLOUIN|   422           0.00154       -0.18056        0.20833        0.00000
 BRILLOUIN|   423           0.00154       -0.18056        0.23611        0.00000
 BRILLOUIN|   424           0.00154       -0.18056        0.26389        0.00000
 BRILLOUIN|   425           0.00154       -0.18056        0.29167        0.00000
 BRILLOUIN|   426           0.00154       -0.18056        0.31944        0.00000
 BRILLOUIN|   427           0.00154       -0.18056        0.34722        0.00000
 BRILLOUIN|   428           0.00154       -0.18056        0.37500        0.00000
 BRILLOUIN|   429           0.00154       -0.18056        0.40278        0.00000
 BRILLOUIN|   430           0.00154       -0.18056        0.43056        0.00000
 BRILLOUIN|   431           0.00154       -0.18056        0.45833        0.00000
 BRILLOUIN|   432           0.00154       -0.18056        0.48611        0.00000
 BRILLOUIN|   433           0.00154       -0.15278       -0.48611        0.00000
 BRILLOUIN|   434           0.00154       -0.15278       -0.45833        0.00000
 BRILLOUIN|   435           0.00154       -0.15278       -0.43056        0.00000
 BRILLOUIN|   436           0.00154       -0.15278       -0.40278        0.00000
 BRILLOUIN|   437           0.00154       -0.15278       -0.37500        0.00000
 BRILLOUIN|   438           0.00154       -0.15278       -0.34722        0.00000
 BRILLOUIN|   439           0.00154       -0.15278       -0.31944        0.00000
 BRILLOUIN|   440           0.00154       -0.15278       -0.29167        0.00000
 BRILLOUIN|   441           0.00154       -0.15278       -0.26389        0.00000
 BRILLOUIN|   442           0.00154       -0.15278       -0.23611        0.00000
 BRILLOUIN|   443           0.00154       -0.15278       -0.20833        0.00000
 BRILLOUIN|   444           0.00154       -0.15278       -0.18056        0.00000
 BRILLOUIN|   445           0.00154       -0.15278       -0.15278        0.00000
 BRILLOUIN|   446           0.00154       -0.15278       -0.12500        0.00000
 BRILLOUIN|   447           0.00154       -0.15278       -0.09722        0.00000
 BRILLOUIN|   448           0.00154       -0.15278       -0.06944        0.00000
 BRILLOUIN|   449           0.00154       -0.15278       -0.04167        0.00000
 BRILLOUIN|   450           0.00154       -0.15278       -0.01389        0.00000
 BRILLOUIN|   451           0.00154       -0.15278        0.01389        0.00000
 BRILLOUIN|   452           0.00154       -0.15278        0.04167        0.00000
 BRILLOUIN|   453           0.00154       -0.15278        0.06944        0.00000
 BRILLOUIN|   454           0.00154       -0.15278        0.09722        0.00000
 BRILLOUIN|   455           0.00154       -0.15278        0.12500        0.00000
 BRILLOUIN|   456           0.00154       -0.15278        0.15278        0.00000
 BRILLOUIN|   457           0.00154       -0.15278        0.18056        0.00000
 BRILLOUIN|   458           0.00154       -0.15278        0.20833        0.00000
 BRILLOUIN|   459           0.00154       -0.15278        0.23611        0.00000
 BRILLOUIN|   460           0.00154       -0.15278        0.26389        0.00000
 BRILLOUIN|   461           0.00154       -0.15278        0.29167        0.00000
 BRILLOUIN|   462           0.00154       -0.15278        0.31944        0.00000
 BRILLOUIN|   463           0.00154       -0.15278        0.34722        0.00000
 BRILLOUIN|   464           0.00154       -0.15278        0.37500        0.00000
 BRILLOUIN|   465           0.00154       -0.15278        0.40278        0.00000
 BRILLOUIN|   466           0.00154       -0.15278        0.43056        0.00000
 BRILLOUIN|   467           0.00154       -0.15278        0.45833        0.00000
 BRILLOUIN|   468           0.00154       -0.15278        0.48611        0.00000
 BRILLOUIN|   469           0.00154       -0.12500       -0.48611        0.00000
 BRILLOUIN|   470           0.00154       -0.12500       -0.45833        0.00000
 BRILLOUIN|   471           0.00154       -0.12500       -0.43056        0.00000
 BRILLOUIN|   472           0.00154       -0.12500       -0.40278        0.00000
 BRILLOUIN|   473           0.00154       -0.12500       -0.37500        0.00000
 BRILLOUIN|   474           0.00154       -0.12500       -0.34722        0.00000
 BRILLOUIN|   475           0.00154       -0.12500       -0.31944        0.00000
 BRILLOUIN|   476           0.00154       -0.12500       -0.29167        0.00000
 BRILLOUIN|   477           0.00154       -0.12500       -0.26389        0.00000
 BRILLOUIN|   478           0.00154       -0.12500       -0.23611        0.00000
 BRILLOUIN|   479           0.00154       -0.12500       -0.20833        0.00000
 BRILLOUIN|   480           0.00154       -0.12500       -0.18056        0.00000
 BRILLOUIN|   481           0.00154       -0.12500       -0.15278        0.00000
 BRILLOUIN|   482           0.00154       -0.12500       -0.12500        0.00000
 BRILLOUIN|   483           0.00154       -0.12500       -0.09722        0.00000
 BRILLOUIN|   484           0.00154       -0.12500       -0.06944        0.00000
 BRILLOUIN|   485           0.00154       -0.12500       -0.04167        0.00000
 BRILLOUIN|   486           0.00154       -0.12500       -0.01389        0.00000
 BRILLOUIN|   487           0.00154       -0.12500        0.01389        0.00000
 BRILLOUIN|   488           0.00154       -0.12500        0.04167        0.00000
 BRILLOUIN|   489           0.00154       -0.12500        0.06944        0.00000
 BRILLOUIN|   490           0.00154       -0.12500        0.09722        0.00000
 BRILLOUIN|   491           0.00154       -0.12500        0.12500        0.00000
 BRILLOUIN|   492           0.00154       -0.12500        0.15278        0.00000
 BRILLOUIN|   493           0.00154       -0.12500        0.18056        0.00000
 BRILLOUIN|   494           0.00154       -0.12500        0.20833        0.00000
 BRILLOUIN|   495           0.00154       -0.12500        0.23611        0.00000
 BRILLOUIN|   496           0.00154       -0.12500        0.26389        0.00000
 BRILLOUIN|   497           0.00154       -0.12500        0.29167        0.00000
 BRILLOUIN|   498           0.00154       -0.12500        0.31944        0.00000
 BRILLOUIN|   499           0.00154       -0.12500        0.34722        0.00000
 BRILLOUIN|   500           0.00154       -0.12500        0.37500        0.00000
 BRILLOUIN|   501           0.00154       -0.12500        0.40278        0.00000
 BRILLOUIN|   502           0.00154       -0.12500        0.43056        0.00000
 BRILLOUIN|   503           0.00154       -0.12500        0.45833        0.00000
 BRILLOUIN|   504           0.00154       -0.12500        0.48611        0.00000
 BRILLOUIN|   505           0.00154       -0.09722       -0.48611        0.00000
 BRILLOUIN|   506           0.00154       -0.09722       -0.45833        0.00000
 BRILLOUIN|   507           0.00154       -0.09722       -0.43056        0.00000
 BRILLOUIN|   508           0.00154       -0.09722       -0.40278        0.00000
 BRILLOUIN|   509           0.00154       -0.09722       -0.37500        0.00000
 BRILLOUIN|   510           0.00154       -0.09722       -0.34722        0.00000
 BRILLOUIN|   511           0.00154       -0.09722       -0.31944        0.00000
 BRILLOUIN|   512           0.00154       -0.09722       -0.29167        0.00000
 BRILLOUIN|   513           0.00154       -0.09722       -0.26389        0.00000
 BRILLOUIN|   514           0.00154       -0.09722       -0.23611        0.00000
 BRILLOUIN|   515           0.00154       -0.09722       -0.20833        0.00000
 BRILLOUIN|   516           0.00154       -0.09722       -0.18056        0.00000
 BRILLOUIN|   517           0.00154       -0.09722       -0.15278        0.00000
 BRILLOUIN|   518           0.00154       -0.09722       -0.12500        0.00000
 BRILLOUIN|   519           0.00154       -0.09722       -0.09722        0.00000
 BRILLOUIN|   520           0.00154       -0.09722       -0.06944        0.00000
 BRILLOUIN|   521           0.00154       -0.09722       -0.04167        0.00000
 BRILLOUIN|   522           0.00154       -0.09722       -0.01389        0.00000
 BRILLOUIN|   523           0.00154       -0.09722        0.01389        0.00000
 BRILLOUIN|   524           0.00154       -0.09722        0.04167        0.00000
 BRILLOUIN|   525           0.00154       -0.09722        0.06944        0.00000
 BRILLOUIN|   526           0.00154       -0.09722        0.09722        0.00000
 BRILLOUIN|   527           0.00154       -0.09722        0.12500        0.00000
 BRILLOUIN|   528           0.00154       -0.09722        0.15278        0.00000
 BRILLOUIN|   529           0.00154       -0.09722        0.18056        0.00000
 BRILLOUIN|   530           0.00154       -0.09722        0.20833        0.00000
 BRILLOUIN|   531           0.00154       -0.09722        0.23611        0.00000
 BRILLOUIN|   532           0.00154       -0.09722        0.26389        0.00000
 BRILLOUIN|   533           0.00154       -0.09722        0.29167        0.00000
 BRILLOUIN|   534           0.00154       -0.09722        0.31944        0.00000
 BRILLOUIN|   535           0.00154       -0.09722        0.34722        0.00000
 BRILLOUIN|   536           0.00154       -0.09722        0.37500        0.00000
 BRILLOUIN|   537           0.00154       -0.09722        0.40278        0.00000
 BRILLOUIN|   538           0.00154       -0.09722        0.43056        0.00000
 BRILLOUIN|   539           0.00154       -0.09722        0.45833        0.00000
 BRILLOUIN|   540           0.00154       -0.09722        0.48611        0.00000
 BRILLOUIN|   541           0.00154       -0.06944       -0.48611        0.00000
 BRILLOUIN|   542           0.00154       -0.06944       -0.45833        0.00000
 BRILLOUIN|   543           0.00154       -0.06944       -0.43056        0.00000
 BRILLOUIN|   544           0.00154       -0.06944       -0.40278        0.00000
 BRILLOUIN|   545           0.00154       -0.06944       -0.37500        0.00000
 BRILLOUIN|   546           0.00154       -0.06944       -0.34722        0.00000
 BRILLOUIN|   547           0.00154       -0.06944       -0.31944        0.00000
 BRILLOUIN|   548           0.00154       -0.06944       -0.29167        0.00000
 BRILLOUIN|   549           0.00154       -0.06944       -0.26389        0.00000
 BRILLOUIN|   550           0.00154       -0.06944       -0.23611        0.00000
 BRILLOUIN|   551           0.00154       -0.06944       -0.20833        0.00000
 BRILLOUIN|   552           0.00154       -0.06944       -0.18056        0.00000
 BRILLOUIN|   553           0.00154       -0.06944       -0.15278        0.00000
 BRILLOUIN|   554           0.00154       -0.06944       -0.12500        0.00000
 BRILLOUIN|   555           0.00154       -0.06944       -0.09722        0.00000
 BRILLOUIN|   556           0.00154       -0.06944       -0.06944        0.00000
 BRILLOUIN|   557           0.00154       -0.06944       -0.04167        0.00000
 BRILLOUIN|   558           0.00154       -0.06944       -0.01389        0.00000
 BRILLOUIN|   559           0.00154       -0.06944        0.01389        0.00000
 BRILLOUIN|   560           0.00154       -0.06944        0.04167        0.00000
 BRILLOUIN|   561           0.00154       -0.06944        0.06944        0.00000
 BRILLOUIN|   562           0.00154       -0.06944        0.09722        0.00000
 BRILLOUIN|   563           0.00154       -0.06944        0.12500        0.00000
 BRILLOUIN|   564           0.00154       -0.06944        0.15278        0.00000
 BRILLOUIN|   565           0.00154       -0.06944        0.18056        0.00000
 BRILLOUIN|   566           0.00154       -0.06944        0.20833        0.00000
 BRILLOUIN|   567           0.00154       -0.06944        0.23611        0.00000
 BRILLOUIN|   568           0.00154       -0.06944        0.26389        0.00000
 BRILLOUIN|   569           0.00154       -0.06944        0.29167        0.00000
 BRILLOUIN|   570           0.00154       -0.06944        0.31944        0.00000
 BRILLOUIN|   571           0.00154       -0.06944        0.34722        0.00000
 BRILLOUIN|   572           0.00154       -0.06944        0.37500        0.00000
 BRILLOUIN|   573           0.00154       -0.06944        0.40278        0.00000
 BRILLOUIN|   574           0.00154       -0.06944        0.43056        0.00000
 BRILLOUIN|   575           0.00154       -0.06944        0.45833        0.00000
 BRILLOUIN|   576           0.00154       -0.06944        0.48611        0.00000
 BRILLOUIN|   577           0.00154       -0.04167       -0.48611        0.00000
 BRILLOUIN|   578           0.00154       -0.04167       -0.45833        0.00000
 BRILLOUIN|   579           0.00154       -0.04167       -0.43056        0.00000
 BRILLOUIN|   580           0.00154       -0.04167       -0.40278        0.00000
 BRILLOUIN|   581           0.00154       -0.04167       -0.37500        0.00000
 BRILLOUIN|   582           0.00154       -0.04167       -0.34722        0.00000
 BRILLOUIN|   583           0.00154       -0.04167       -0.31944        0.00000
 BRILLOUIN|   584           0.00154       -0.04167       -0.29167        0.00000
 BRILLOUIN|   585           0.00154       -0.04167       -0.26389        0.00000
 BRILLOUIN|   586           0.00154       -0.04167       -0.23611        0.00000
 BRILLOUIN|   587           0.00154       -0.04167       -0.20833        0.00000
 BRILLOUIN|   588           0.00154       -0.04167       -0.18056        0.00000
 BRILLOUIN|   589           0.00154       -0.04167       -0.15278        0.00000
 BRILLOUIN|   590           0.00154       -0.04167       -0.12500        0.00000
 BRILLOUIN|   591           0.00154       -0.04167       -0.09722        0.00000
 BRILLOUIN|   592           0.00154       -0.04167       -0.06944        0.00000
 BRILLOUIN|   593           0.00154       -0.04167       -0.04167        0.00000
 BRILLOUIN|   594           0.00154       -0.04167       -0.01389        0.00000
 BRILLOUIN|   595           0.00154       -0.04167        0.01389        0.00000
 BRILLOUIN|   596           0.00154       -0.04167        0.04167        0.00000
 BRILLOUIN|   597           0.00154       -0.04167        0.06944        0.00000
 BRILLOUIN|   598           0.00154       -0.04167        0.09722        0.00000
 BRILLOUIN|   599           0.00154       -0.04167        0.12500        0.00000
 BRILLOUIN|   600           0.00154       -0.04167        0.15278        0.00000
 BRILLOUIN|   601           0.00154       -0.04167        0.18056        0.00000
 BRILLOUIN|   602           0.00154       -0.04167        0.20833        0.00000
 BRILLOUIN|   603           0.00154       -0.04167        0.23611        0.00000
 BRILLOUIN|   604           0.00154       -0.04167        0.26389        0.00000
 BRILLOUIN|   605           0.00154       -0.04167        0.29167        0.00000
 BRILLOUIN|   606           0.00154       -0.04167        0.31944        0.00000
 BRILLOUIN|   607           0.00154       -0.04167        0.34722        0.00000
 BRILLOUIN|   608           0.00154       -0.04167        0.37500        0.00000
 BRILLOUIN|   609           0.00154       -0.04167        0.40278        0.00000
 BRILLOUIN|   610           0.00154       -0.04167        0.43056        0.00000
 BRILLOUIN|   611           0.00154       -0.04167        0.45833        0.00000
 BRILLOUIN|   612           0.00154       -0.04167        0.48611        0.00000
 BRILLOUIN|   613           0.00154       -0.01389       -0.48611        0.00000
 BRILLOUIN|   614           0.00154       -0.01389       -0.45833        0.00000
 BRILLOUIN|   615           0.00154       -0.01389       -0.43056        0.00000
 BRILLOUIN|   616           0.00154       -0.01389       -0.40278        0.00000
 BRILLOUIN|   617           0.00154       -0.01389       -0.37500        0.00000
 BRILLOUIN|   618           0.00154       -0.01389       -0.34722        0.00000
 BRILLOUIN|   619           0.00154       -0.01389       -0.31944        0.00000
 BRILLOUIN|   620           0.00154       -0.01389       -0.29167        0.00000
 BRILLOUIN|   621           0.00154       -0.01389       -0.26389        0.00000
 BRILLOUIN|   622           0.00154       -0.01389       -0.23611        0.00000
 BRILLOUIN|   623           0.00154       -0.01389       -0.20833        0.00000
 BRILLOUIN|   624           0.00154       -0.01389       -0.18056        0.00000
 BRILLOUIN|   625           0.00154       -0.01389       -0.15278        0.00000
 BRILLOUIN|   626           0.00154       -0.01389       -0.12500        0.00000
 BRILLOUIN|   627           0.00154       -0.01389       -0.09722        0.00000
 BRILLOUIN|   628           0.00154       -0.01389       -0.06944        0.00000
 BRILLOUIN|   629           0.00154       -0.01389       -0.04167        0.00000
 BRILLOUIN|   630           0.00154       -0.01389       -0.01389        0.00000
 BRILLOUIN|   631           0.00154       -0.01389        0.01389        0.00000
 BRILLOUIN|   632           0.00154       -0.01389        0.04167        0.00000
 BRILLOUIN|   633           0.00154       -0.01389        0.06944        0.00000
 BRILLOUIN|   634           0.00154       -0.01389        0.09722        0.00000
 BRILLOUIN|   635           0.00154       -0.01389        0.12500        0.00000
 BRILLOUIN|   636           0.00154       -0.01389        0.15278        0.00000
 BRILLOUIN|   637           0.00154       -0.01389        0.18056        0.00000
 BRILLOUIN|   638           0.00154       -0.01389        0.20833        0.00000
 BRILLOUIN|   639           0.00154       -0.01389        0.23611        0.00000
 BRILLOUIN|   640           0.00154       -0.01389        0.26389        0.00000
 BRILLOUIN|   641           0.00154       -0.01389        0.29167        0.00000
 BRILLOUIN|   642           0.00154       -0.01389        0.31944        0.00000
 BRILLOUIN|   643           0.00154       -0.01389        0.34722        0.00000
 BRILLOUIN|   644           0.00154       -0.01389        0.37500        0.00000
 BRILLOUIN|   645           0.00154       -0.01389        0.40278        0.00000
 BRILLOUIN|   646           0.00154       -0.01389        0.43056        0.00000
 BRILLOUIN|   647           0.00154       -0.01389        0.45833        0.00000
 BRILLOUIN|   648           0.00154       -0.01389        0.48611        0.00000
 *******************************************************************************

 *******************************************************************************
 *******************************************************************************
 **                                                                           **
 **     #####                         ##              ##                      **
 **    ##   ##            ##          ##              ##                      **
 **   ##     ##                       ##            ######                    **
 **   ##     ##  ##   ##  ##   #####  ##  ##   ####   ##    #####    #####    **
 **   ##     ##  ##   ##  ##  ##      ## ##   ##      ##   ##   ##  ##   ##   **
 **   ##  ## ##  ##   ##  ##  ##      ####     ###    ##   ######   ######    **
 **    ##  ###   ##   ##  ##  ##      ## ##      ##   ##   ##       ##        **
 **     #######   #####   ##   #####  ##  ##  ####    ##    #####   ##        **
 **           ##                                                    ##        **
 **                                                                           **
 **                                                ... make the atoms dance   **
 **                                                                           **
 **            Copyright (C) by CP2K developers group (2000-2024)             **
 **                      J. Chem. Phys. 152, 194103 (2020)                    **
 **                                                                           **
 *******************************************************************************

 DFT| Spin restricted Kohn-Sham (RKS) calculation                            RKS
 DFT| Multiplicity                                                             1
 DFT| Number of spin states                                                    1
 DFT| Charge                                                                   0
 DFT| Self-interaction correction (SIC)                                       NO
 DFT| Cutoffs: density                                              1.000000E-10
 DFT|          gradient                                             1.000000E-10
 DFT|          tau                                                  1.000000E-10
 DFT|          cutoff_smoothing_range                               0.000000E+00
 DFT| XC density smoothing                                                  NONE
 DFT| XC derivatives                                                          PW

 FUNCTIONAL| PBE:
 FUNCTIONAL| J.P.Perdew, K.Burke, M.Ernzerhof, Phys. Rev. Letter, vol. 77, n 18,
 FUNCTIONAL|  pp. 3865-3868, (1996) {spin unpolarized}                          


 QS| Method:                                                                GAPW
 QS| Density plane wave grid type                        NON-SPHERICAL FULLSPACE
 QS| Number of grid levels:                                                    4
 QS| Density cutoff [a.u.]:                                                250.0
 QS| Multi grid cutoff [a.u.]: 1) grid level                               250.0
 QS|                           2) grid level                                83.3
 QS|                           3) grid level                                27.8
 QS|                           4) grid level                                 9.3
 QS| Grid level progression factor:                                          3.0
 QS| Relative density cutoff [a.u.]:                                        50.0
 QS| Interaction thresholds: eps_pgf_orb:                                1.0E-12
 QS|                         eps_filter_matrix:                          0.0E+00
 QS|                         eps_core_charge:                            1.0E-14
 QS|                         eps_rho_gspace:                             1.0E-12
 QS|                         eps_rho_rspace:                             1.0E-12
 QS|                         eps_gvg_rspace:                             1.0E-06
 QS|                         eps_ppl:                                    1.0E-02
 QS|                         eps_ppnl:                                   1.0E-08
 QS| GAPW|      One center basis from orbital basis primitives
 QS| GAPW|                   eps_fit:                                    1.0E-04
 QS| GAPW|                   eps_iso:                                    1.0E-12
 QS| GAPW|                   eps_svd:                                    1.0E-08
 QS| GAPW|                   eps_cpc:                                    1.0E-12
 QS| GAPW|   atom-r-grid: quadrature:                                     GC_LOG
 QS| GAPW|      atom-s-grid:  max l :                                          6
 QS| GAPW|      max_l_rho0 :                                                   2
 QS| GAPW|      At least one kind is NOT PAW, i.e. it has only soft AO 
 QS| GAPW|      The NOT PAW atoms are treated fully GPW


 ATOMIC KIND INFORMATION

  1. Atomic kind: Mo                                    Number of atoms:       1

     Orbital Basis Set                                       TZV2P-MOLOPT-SR-GTH

       Number of orbital shell sets:                                           1
       Number of orbital shells:                                              12
       Number of primitive Cartesian functions:                                7
       Number of Cartesian basis functions:                                   51
       Number of spherical basis functions:                                   42
       Norm type:                                                              2

       Normalised Cartesian orbitals:

                        Set   Shell   Orbital            Exponent    Coefficient

                          1       1    2s                2.540273      -1.321231
                                                         1.999996       0.386074
                                                         0.894040       0.632184
                                                         0.439257       0.196926
                                                         0.189498       0.017023
                                                         0.083802      -0.027705
                                                         0.052949      -0.026613

                          1       2    3s                2.540273       0.226721
                                                         1.999996      -0.073158
                                                         0.894040      -0.053559
                                                         0.439257       0.091291
                                                         0.189498      -0.109922
                                                         0.083802      -0.065996
                                                         0.052949      -0.004390

                          1       3    4s                2.540273       0.151037
                                                         1.999996      -0.934259
                                                         0.894040       0.277268
                                                         0.439257      -0.018911
                                                         0.189498       0.203898
                                                         0.083802      -0.107599
                                                         0.052949       0.083646

                          1       4    5s                2.540273      -0.119990
                                                         1.999996       0.896807
                                                         0.894040       0.455473
                                                         0.439257      -0.443578
                                                         0.189498      -0.167165
                                                         0.083802      -0.001095
                                                         0.052949       0.077321

                          1       5    3px               2.540273       2.622682
                                                         1.999996      -2.341890
                                                         0.894040      -0.583031
                                                         0.439257      -0.176984
                                                         0.189498      -0.015780
                                                         0.083802      -0.000908
                                                         0.052949      -0.000447
                          1       5    3py               2.540273       2.622682
                                                         1.999996      -2.341890
                                                         0.894040      -0.583031
                                                         0.439257      -0.176984
                                                         0.189498      -0.015780
                                                         0.083802      -0.000908
                                                         0.052949      -0.000447
                          1       5    3pz               2.540273       2.622682
                                                         1.999996      -2.341890
                                                         0.894040      -0.583031
                                                         0.439257      -0.176984
                                                         0.189498      -0.015780
                                                         0.083802      -0.000908
                                                         0.052949      -0.000447

                          1       6    4px               2.540273      -0.260015
                                                         1.999996       0.590944
                                                         0.894040      -0.043681
                                                         0.439257      -0.117520
                                                         0.189498      -0.105390
                                                         0.083802      -0.009391
                                                         0.052949      -0.005803
                          1       6    4py               2.540273      -0.260015
                                                         1.999996       0.590944
                                                         0.894040      -0.043681
                                                         0.439257      -0.117520
                                                         0.189498      -0.105390
                                                         0.083802      -0.009391
                                                         0.052949      -0.005803
                          1       6    4pz               2.540273      -0.260015
                                                         1.999996       0.590944
                                                         0.894040      -0.043681
                                                         0.439257      -0.117520
                                                         0.189498      -0.105390
                                                         0.083802      -0.009391
                                                         0.052949      -0.005803

                          1       7    5px               2.540273      -0.353254
                                                         1.999996       0.905805
                                                         0.894040       0.246303
                                                         0.439257      -0.518036
                                                         0.189498       0.039707
                                                         0.083802      -0.012470
                                                         0.052949       0.039500
                          1       7    5py               2.540273      -0.353254
                                                         1.999996       0.905805
                                                         0.894040       0.246303
                                                         0.439257      -0.518036
                                                         0.189498       0.039707
                                                         0.083802      -0.012470
                                                         0.052949       0.039500
                          1       7    5pz               2.540273      -0.353254
                                                         1.999996       0.905805
                                                         0.894040       0.246303
                                                         0.439257      -0.518036
                                                         0.189498       0.039707
                                                         0.083802      -0.012470
                                                         0.052949       0.039500

                          1       8    4dx2              2.540273      -1.497042
                                                         1.999996       1.923448
                                                         0.894040       0.383738
                                                         0.439257       0.135280
                                                         0.189498       0.028294
                                                         0.083802       0.001439
                                                         0.052949       0.000783
                          1       8    4dxy              2.540273      -2.592953
                                                         1.999996       3.331510
                                                         0.894040       0.664653
                                                         0.439257       0.234311
                                                         0.189498       0.049007
                                                         0.083802       0.002493
                                                         0.052949       0.001357
                          1       8    4dxz              2.540273      -2.592953
                                                         1.999996       3.331510
                                                         0.894040       0.664653
                                                         0.439257       0.234311
                                                         0.189498       0.049007
                                                         0.083802       0.002493
                                                         0.052949       0.001357
                          1       8    4dy2              2.540273      -1.497042
                                                         1.999996       1.923448
                                                         0.894040       0.383738
                                                         0.439257       0.135280
                                                         0.189498       0.028294
                                                         0.083802       0.001439
                                                         0.052949       0.000783
                          1       8    4dyz              2.540273      -2.592953
                                                         1.999996       3.331510
                                                         0.894040       0.664653
                                                         0.439257       0.234311
                                                         0.189498       0.049007
                                                         0.083802       0.002493
                                                         0.052949       0.001357
[...]
 J. Chem. Phys. 152, 194103 (2020).
 CP2K: An electronic structure and molecular dynamics software package - 
 Quickstep: Efficient and accurate electronic structure calculations.
 https://doi.org/10.1063/5.0007045

 A. Togo, I. Tanaka.
 arXiv, 1808.01590 (2018).
 Spglib : a software library for crystal symmetry search.

 O. Schuett, P. Messmer, J. Hutter, J. VandeVondele.
 Electronic Structure Calculations on Graphics Processing Units, 173-190 (2016).
 GPU-Accelerated Sparse Matrix-Matrix Multiplication for Linear Scaling Density 
 Functional Theory.
 https://doi.org/10.1002/9781118670712.ch8

 A. Heinecke, G. Henry, M. Hutchinson, H. Pabst.
 Proceedings of Intl. Supercomputing Conference, 981-991 (2016).
 LIBXSMM: Accelerating Small Matrix Multiplications by Runtime Code Generation.
 https://doi.org/10.1109/SC.2016.83

 J. Hutter, M. Iannuzzi, F. Schiffmann, J. VandeVondele.
 WIREs Comput Mol Sci. 4, 15-25 (2014).
 CP2K: atomistic simulations of condensed matter systems.
 https://doi.org/10.1002/wcms.1159

 U. Borstnik, J. VandeVondele, V. Weber, J. Hutter.
 Parallel Comput. 40, 47-58 (2014).
 Sparse matrix multiplication: The distributed block-compressed sparse row 
 library.
 https://doi.org/10.1016/j.parco.2014.03.012

 A. Marek, V. Blum, R. Johanni, V. Havu, B. Lang, T. Auckenthaler, A. Heinecke, 
 H. Bungartz, H. Lederer.
 J. Phys. Condens. Matter 26, 213201 (2014).
 The ELPA library: scalable parallel eigenvalue solutions for electronic 
 structure theory and computational science.
 https://doi.org/10.1088/0953-8984/26/21/213201

 J. VandeVondele, J. Hutter.
 J. Chem. Phys. 127, 114105 (2007).
 Gaussian basis sets for accurate calculations on molecular systems in gas and 
 condensed phases.
 https://doi.org/10.1063/1.2770708

 M. Krack.
 Theor. Chem. Acc. 114, 145-152 (2005).
 Pseudopotentials for H to Kr optimized for gradient-corrected 
 exchange-correlation functionals.
 https://doi.org/10.1007/s00214-005-0655-y

 M. Frigo, S. G. Johnson.
 Proc. IEEE 93, 216-231 (2005).
 The design and implementation of FFTW3.
 https://doi.org/10.1109/JPROC.2004.840301

 M. Krack, M. Parrinello.
 Phys. Chem. Chem. Phys. 2, 2105-2112 (2000).
 All-electron ab-initio molecular dynamics.
 https://doi.org/10.1039/b001167n

 G. Lippert, J. Hutter, M. Parrinello.
 Theor. Chem. Acc. 103, 124-140 (1999).
 The Gaussian and augmented-plane-wave density functional method for ab initio 
 molecular dynamics simulations.
 https://doi.org/10.1007/s002140050523

 C. Hartwigsen, S. Goedecker, J. Hutter.
 Phys. Rev. B 58, 3641-3662 (1998).
 Relativistic separable dual-space Gaussian pseudopotentials from H to Rn.
 https://doi.org/10.1103/PhysRevB.58.3641

 S. Goedecker, M. Teter, J. Hutter.
 Phys. Rev. B 54, 1703-1710 (1996).
 Separable dual-space Gaussian pseudopotentials.
 https://doi.org/10.1103/PhysRevB.54.1703

 J. P. Perdew, K. Burke, M. Ernzerhof.
 Phys. Rev. Lett. 77, 3865-3868 (1996).
 Generalized gradient approximation made simple.
 https://doi.org/10.1103/PhysRevLett.77.3865


 -------------------------------------------------------------------------------
 -                                                                             -
 -                                T I M I N G                                  -
 -                                                                             -
 -------------------------------------------------------------------------------
 SUBROUTINE                       CALLS  ASD         SELF TIME        TOTAL TIME
                                MAXIMUM       AVERAGE  MAXIMUM  AVERAGE  MAXIMUM
 CP2K                                 1  1.0     0.01     0.02 34302.30 34302.63
 qs_energies                          1  2.0     0.00     0.00 34301.14 34301.46
 qs_energies_properties               1  3.0     0.00     0.00 34258.41 34258.73
 post_scf_bandstructure               1  4.0     0.00     0.00 34258.41 34258.73
 gw                                   1  5.0     0.00     0.00 34020.25 34020.58
 gw_calc_small_cell_full_kp           1  6.0     0.00     0.01 33632.31 33632.64
 dbt_total                      *******  9.9    58.32    65.62 21989.15 22688.43
 dbt_contract                   ******* 10.6    85.94    96.82 17222.34 17741.05
 dbt_tas_multiply               9033602 13.0     8.65    10.36 16146.99 16939.02
 dbt_tas_total                  9033602 14.0   394.63   417.17 15833.21 16313.24
 compute_Sigma_c                      1  7.0     0.00     0.00 13957.76 13957.90
 mp_sync                        ******* 11.8  7217.57 11386.46  7217.57 11386.46
 compute_chi                          1  7.0     0.09     0.12 11194.44 11194.55
 dbt_tas_dbm                    9033602 15.0     7.79     8.83  8085.96  8416.77
 dbm_multiply                   9033602 17.0  5585.38  8165.65  5585.38  8165.65
 compute_W_real_space                 1  7.0    12.23    12.86  7589.19  7589.28
 contract_to_Sigma                  671  8.0    71.67    78.02  7062.30  7541.53
 compute_Minv_and_Vsqrt               1  8.0     0.10     0.11  6319.42  6319.57
 build_2c_coulomb_matrix_kp_sma       2  9.0    16.73    58.77  6303.78  6303.85
 contract_M_occ_vir_to_chi          330  8.0   132.12   150.26  5805.76  6287.83
 contract_W                         341  8.0    13.77    14.96  5459.26  5881.07
 dbt_copy                       ******* 11.1    61.16    67.71  4310.81  5693.95
 build_2c_coulomb_matrix_kp_sma  829440 10.0  4925.81  5058.60  4925.81  5058.60
 contract_to_Sigma_3c_x_G       8747705  9.0     9.72    10.60  4356.02  4617.46
 dbt_reshape                    ******* 12.0  2136.85  3274.79  3423.33  4509.40
 G_times_3c                       37320  8.0    16.67    17.59  4142.63  4374.01
 dbt_tas_mm_2                   2909324 16.1     3.36     4.05  3429.69  3747.74
 dbt_tas_estimate_result_nze    4516801 13.5   873.30  1381.05  3465.94  3568.75
 dbt_tas_mm_3T                  3786404 16.2     2.33     2.89  1896.27  3453.80
 contract_to_Sigma_contract       37942  9.0    19.54    20.78  2600.69  2890.56
 get_t_3c_int                   *******  9.6    35.01    37.49  2513.19  2769.14
 mp_waitall_2                   ******* 17.5  1297.74  1609.92  1297.74  1609.92
 reshape_mm_small               9033602 15.0   545.13   563.42  1510.10  1576.87
 dbt_tas_mm_1N                  2499178 15.5     1.33     1.49   886.93  1470.30
 dbt_communicate_buffer         ******* 13.0    14.51    19.96  1009.62  1328.59
 dbt_tas_create_split           ******* 16.0    16.71    18.42  1147.55  1230.42
 dbt_tas_create_split_rows_or_c ******* 17.0    59.25    63.74  1130.84  1213.95
 dbcsr_complete_redistribute     365395 10.5     7.78    17.73   876.03  1213.49
 dbt_remap                       608894 11.0    58.37    65.25   785.17  1202.62
 fm_to_local_tensor              186200  9.0     4.24     4.48   890.89  1152.83
 reshape_mm_compatible          9033602 15.0    80.11    94.81  1038.79  1101.27
 G_occ_vir                          121  8.0     0.35     0.42   990.83   992.58
 dbt_tas_distribution_new       ******* 15.8   407.58   424.53   871.95   926.77
 convert_to_new_pgrid           ******* 15.0    98.53   103.15   621.80   923.55
 change_split                   ******* 15.5    29.10    33.45   847.64   903.90
 dbt_tas_copy                   9656902 12.9   411.71   696.70   562.53   903.10
 dbt_tas_reshape                ******* 15.5    47.28    51.98   747.19   897.20
 dbm_copy                       ******* 16.0   523.27   822.99   523.27   822.99
 copy_dbcsr_to_fm                176121  9.1     1.13     1.20   811.80   817.73
 copy_fm_to_dbcsr                189274 10.0     0.37     0.41   478.41   815.43
 dbt_tas_reserve_blocks_index   ******* 15.7    33.73    37.52   500.99   745.39
 dbm_reserve_blocks             ******* 16.6   497.21   741.25   497.21   741.25
 parallel_gemm_cfm               350312  8.9     0.20     0.25   645.74   706.69
 parallel_gemm_cfm_cosma         350312  9.9   645.54   706.51   645.54   706.51
 dbt_tas_replicate              9033602 15.0   199.83   244.19   632.94   702.28
 mp_alltoall_i22                 564028 11.3   335.54   667.41   335.54   667.41
 dbt_copy_nocomm                2539080 11.0   316.59   513.80   394.06   619.35
 mp_cart_create                 ******* 16.8   443.29   586.77   466.89   608.31
 add_V_L                         414720 10.0     6.20   600.00     6.20   600.00
 local_dbt_to_global_fm              91  8.0     0.19     0.20   591.77   591.78
 fm_to_local_array                  934  8.1   127.83   129.64   538.21   540.63
 dbt_tas_communicate_buffer     ******* 17.3    58.17    68.84   426.54   538.50
 mp_sum_dm                       829441 10.0   473.68   524.53   473.68   524.53
 dbm_filter                     ******* 14.9   273.13   502.36   273.13   502.36
 mp_comm_dup                    ******* 18.6   419.14   481.90   431.42   494.32
 compute_Sigma_x                      1  7.0     0.01     0.01   489.54   489.60
 mp_alltoall_d11v               1692084 11.6   473.10   475.26   473.10   475.26
 dbcsr_desymmetrize_deep         198633  9.8     2.16     3.15   464.24   470.88
 mp_sum_l                       ******* 15.2   320.72   465.94   320.72   465.94
 mp_alltoall_i11v               1294818 11.4   452.13   452.26   452.13   452.26
 mp_sum_dm3                         997  9.0   408.20   432.29   408.20   432.29
 dbt_reserve_blocks_index_array ******* 13.0     9.74    11.36   301.34   420.99
 global_matrix_to_local_matrix   186200 10.0     3.18     7.30   361.14   417.19
 dbt_reserve_blocks_index       ******* 14.0    13.66    16.35   296.05   416.58
 compute_QP_energies                  1  7.0     0.04     0.05   401.38   401.41
 trafo_to_k_and_nn                88084  8.0     0.36     0.42   401.01   401.05
 create_and_init_bs_env_for_gw        1  6.0     0.00     0.00   387.94   387.96
 mp_comm_split_direct           ******* 18.0   333.69   348.09   341.31   355.83
 dbt_tas_reserve_blocks_templat ******* 14.2    26.65    30.21   186.56   325.81
 dbt_tas_reshape_communicate_bu ******* 16.5     7.99     8.74   245.18   324.42
 mp_sum_dv                        96759  8.9    45.84   323.89    45.84   323.89
 mp_waitall_1                    786234 12.9   257.69   319.30   257.69   319.30
 compute_3c_integrals                 1  7.0     0.05     0.05   308.24   308.24
 build_3c_integrals                   1  8.0   138.75   298.69   143.68   306.95
 dbt_tas_reshape_buffer_obtain  ******* 16.5   150.08   226.16   213.61   303.77
 send_data                       186200 11.0     0.15     0.18   237.43   293.99
 communicate_buffer              186200 12.0     0.91    38.16   237.29   293.84
 fm_MWM_R_t_to_local_tensor_W_R      30  8.0     0.03     0.04   269.77   269.81
 dbt_tas_reshape_buffer_fill    ******* 16.5   183.68   262.62   183.68   262.62
 add_rs_to_ikp                  ******* 10.0   246.06   259.67   246.06   259.67
 mult_W_with_Minv                    30  8.0     1.68     1.81   245.53   245.83
 mp_alltoall_i                  ******* 14.9   185.03   243.96   185.03   243.96
 get_V_tr_R                          34  9.0     0.15     0.16   241.16   242.03
 trafo_rs_to_ikp                   4568  8.1     2.68     2.99   226.97   237.38
 add_ikp_to_rs                  ******* 10.0   205.54   229.19   205.54   229.19
 dbt_tas_replicate_communicate_ 6277220 15.9     6.00     6.97   178.00   226.77
 dbt_create_matrix               186200 10.0     1.13     1.23    37.31   205.75
 dbt_pgrid_create_expert        1590201 13.3     2.50     3.29    32.40   201.30
 add_ikp_to_all_rs                 4174  8.0     2.17     2.55   178.49   200.70
 dbt_nd_mp_comm                  795094 11.8     1.76     2.38    22.01   189.96
 dbt_tas_create_new             ******* 15.3   170.13   183.59   170.13   183.59
 hybrid_alltoall_any             198633 10.8     0.67     0.71   170.97   171.57
 dbt_permute_index              ******* 12.2   117.19   130.60   134.29   149.24
 dbt_tas_mp_comm                5108159 13.2    10.50    11.76   135.94   143.64
 dbm_add                        9033602 15.0    93.30   143.00    93.30   143.00
 mp_comm_free                   ******* 15.7   131.41   141.37   131.41   141.37
 get_data                        186200 11.0     8.05   133.47     8.33   133.84
 local_dbt_to_global_mat         111475  9.0     0.40     0.42    93.76   132.28
 dbt_tas_replicate_alltoall     6277220 15.9     3.42     4.06    72.08   122.80
 add_R                          *******  9.3    76.18    81.37   107.48   117.07
 rsmat_to_kp                       8664  7.2     0.06     0.07   116.23   116.78
 mp_sum_i                       8039356 15.9   107.39   113.18   107.39   113.18
 dos_pdos_ldos                        1  5.0     0.00     0.01   111.10   111.23
 dbt_reserve_blocks_template    2539080 12.0     3.57     4.66    77.47   106.07
 SOC_ev                            2888  6.0     0.02     0.03    98.16    98.29
 send_sizes_1                    186200 11.0     0.11     0.13    95.07    95.71
 dbt_align_index                ******* 11.5    14.51    16.63    86.67    95.64
 dbt_tas_merge                  2909324 15.1    44.11    49.66    83.86    95.42
 cp_cfm_heevd                      5830  7.5    91.27    91.63    91.27    91.63
 fm_add_ikp_to_rs                156816  9.0    58.07    61.15    87.31    91.27
 dbt_distribution_new_expert    1590198 12.3     9.65    10.85    84.56    91.03
 power                             8629  8.0    81.28    82.98    81.28    82.98
 reshape_mm_template            1217788 15.5    40.24    52.45    65.00    78.01
 local_matrix_to_global_matrix   111475 10.0     0.20     0.22    34.07    73.20
 create_and_init_bs_env               1  5.0     0.00     0.00    70.64    70.64
 compute_cfm_mo_coeff_kp_and_ei       1  6.0     0.00     0.00    70.60    70.60
 mp_max_i                       ******* 11.6    62.30    68.60    62.30    68.60
 fm_trafo_rs_to_ikp               88084  9.0    33.19    34.84    54.95    60.27
 is_cell_in_index_to_cell       ******* -3.2    53.35    58.52    53.35    58.52
 mp_cart_get                    ******* -7.8    49.89    58.15    49.89    58.15
 soc                                  1  5.0     0.00     0.00    56.42    56.42
 H_KS_spinor_kp                       1  6.0     0.01     0.01    56.39    56.40
 mp_comm_size                   ******* -2.6    40.52    53.01    40.52    53.01
 mp_isend_dv                    ******* 17.6    30.04    50.61    30.04    50.61
 dbt_destroy                    ******* 11.3    41.00    45.32    44.52    49.23
 dbt_create_new                  795099 11.8     6.94     8.35    41.09    43.46
 scf_env_do_scf                       1  3.0     0.00     0.00    41.70    41.71
 scf_env_do_scf_inner_loop            2  4.0     0.00     0.00    41.70    41.71
 qs_scf_new_mos_kp                    2  5.0     0.00     0.00    41.08    41.08
 do_general_diag_kp                   2  6.0     0.01     0.01    41.08    41.08
 dbt_tas_reshape_alltoall       ******* 16.5     5.80     6.84    35.60    40.92
 mp_bcast_i                     ******* 18.0    29.48    38.15    29.48    38.15
 mp_comm_rank                   ******* -2.6    30.85    35.27    30.85    35.27
 mp_cart_sub                     352321 11.1    33.11    33.17    33.11    33.17
 get_Minv_Vtr_Minv_R                  1  8.0     0.07     0.07    29.47    29.52
 cp_cfm_geeig_canon                1444  7.0     0.01     0.01    29.14    29.19
 dbt_create_3c_R1_R2                 62  8.0     3.11     3.31    26.98    28.37
 dbt_create_template            3819523  9.0    26.34    27.84    26.34    27.84
 compute_V_xc                         1  7.0     0.00     0.00    27.81    27.81
 trafo_V_xc_R_to_kp                   1  7.0     0.01     0.01    26.50    26.52
 qs_ks_build_kohn_sham_matrix         5  7.6     0.00     0.02    21.83    26.33
 transfer_pw2rs                      26 11.0     0.00     0.00    21.70    26.20
 transfer_pw2rs_250                  11 11.3     0.01     0.01    21.68    26.18
 integrate_vhg0_rspace                5  8.6     0.00     0.00    21.66    26.16
 dbt_tas_merge_communicate_buff 2909324 16.1     2.38     2.71    19.73    25.98
 destroy_t_2d                        62  8.0     4.31     4.96    21.51    23.09
 dbcsr_finalize                 1810836 11.7     3.41     5.87    16.31    22.32
 set_blocks                      111475 11.0     2.98    15.29     5.80    21.85
 comm_size                       111475 11.0     0.12     0.12    21.09    21.54
 dbt_tas_reshape_get_coord      ******* 16.5    18.89    20.90    18.89    20.90
 dbm_scale                      ******* 13.1    18.39    19.77    18.39    19.77
 comm_data                       111475 11.0     0.21     2.77     0.75    18.91
 mp_isend_im2                   ******* 13.9     3.56    17.44     3.56    17.44
 dbcsr_filter_anytype            824887 11.0     1.86     2.00    10.63    16.65
 mp_isend_lm2                   ******* 18.2    11.75    14.59    11.75    14.59
 heuristic_RI_regularization          1  7.0     0.00     0.00    14.28    14.28
 rskp_transform                   11256  7.9     0.06    14.12     0.06    14.12
 build_2c_integrals                  34 10.0     0.07     6.61     0.17    13.67
 dbt_tas_merge_alltoall         2909324 16.1     2.31     2.86    10.80    12.48
 send_sizes_2                    186200 11.0     0.11     0.12    11.72    12.25
 mp_irecv_lm2                   ******* 18.2     9.79    11.80     9.79    11.80
 compute_proj_mo_on_kind           1444  6.0     0.02     0.03    11.63    11.80
 mp_dims_create                 ******* 14.3     9.15    10.72     9.15    10.72
 mp_irecv_dv                    ******* 17.6     8.21    10.23     8.21    10.23
 dbt_buffer_get_index           ******* 16.8     9.37    10.07     9.37    10.07
 dbcsr_merge_all                 662132 12.4     5.92     7.50     8.24     9.81
 mp_cart_rank                   ******* 15.9     4.53     9.62     4.53     9.62
 fill_buffer                     111475 11.0     4.02     8.40     4.19     8.58
 setup_cells_3c                       1  7.0     0.30     0.31     7.82     7.82
 build_3c_integral_block           4887  8.0     1.38     1.61     6.81     7.52
 kpoint_density_transform             2  7.0     0.00     0.00     7.13     7.14
 dbt_distribution_destroy       1590198 12.3     4.46     5.41     5.58     6.68
 dbcsr_create_new               1151364 11.0     3.84     4.16     5.61     5.94
 abc_contract_xsmm                21500  9.0     5.21     5.91     5.21     5.91
 alloc_block_3c                       1  9.0     0.06     0.08     3.54     5.77
 ab_contract                    8119312 11.0     0.03     5.66     0.03     5.66
 mp_irecv_im2                   ******* 13.9     3.31     5.43     3.31     5.43
 dbcsr_work_create               860765 11.5     2.69     3.52     3.83     4.78
 dbcsr_iterator_start           3556785 11.7     3.52     3.65     4.15     4.32
 copy_fm_to_dbcsr_bc             189274 11.0     1.19     1.25     4.02     4.26
 reserve_blocks                  186200 11.0     0.49     0.52     3.63     4.16
 dbcsr_set                      1507505 11.1     0.76     0.88     3.35     3.94
 dbt_copy_matrix_to_tensor       186200 10.0     1.14     1.49     3.39     3.89
 dbcsr_reserve_blocks            660788 12.3     1.40     3.28     1.66     3.67
 -------------------------------------------------------------------------------

 The number of warnings for this run is : 1
 
 -------------------------------------------------------------------------------
  **** **** ******  **  PROGRAM ENDED AT                 2024-10-16 05:27:25.882
 ***** ** ***  *** **   PROGRAM RAN ON                                 n2lcn0101
 **    ****   ******    PROGRAM RAN BY                                  metdyn02
 ***** **    ** ** **   PROGRAM PROCESS ID                               2912185
  **** **  *******  **  PROGRAM STOPPED IN /scratch/hpc-prf-metdyn/metdyn02_Remi
                                           /03_TMD/02_MoSe2/01
