 DBCSR| CPU Multiplication driver                                           BLAS (U)
 DBCSR| Multrec recursion limit                                              512 (U)
 DBCSR| Multiplication stack size                                           1000 (D)
 DBCSR| Maximum elements for images                                    UNLIMITED (U)
 DBCSR| Multiplicative factor virtual images                                   1 (U)
 DBCSR| Use multiplication densification                                       T (D)
 DBCSR| Multiplication size stacks                                             3 (U)
 DBCSR| Use memory pool for CPU allocation                                     F (U)
 DBCSR| Number of 3D layers                                               SINGLE (U)
 DBCSR| Use MPI memory allocation                                              F (U)
 DBCSR| Use RMA algorithm                                                      F (U)
 DBCSR| Use Communication thread                                               T (U)
 DBCSR| Communication thread load                                             45 (D)
 DBCSR| MPI: My process id                                                     0
 DBCSR| MPI: Number of processes                                             128
 DBCSR| OMP: Current number of threads                                        12
 DBCSR| OMP: Max number of threads                                            12
 DBCSR| Split modifier for TAS multiplication algorithm                  1.0E+00 (U)


  **** **** ******  **  PROGRAM STARTED AT               2025-02-28 07:44:30.159
 ***** ** ***  *** **   PROGRAM STARTED ON                          f01r02c01s01
 **    ****   ******    PROGRAM STARTED BY                               di38fab
 ***** **    ** ** **   PROGRAM PROCESS ID                                 30135
  **** **  *******  **  PROGRAM STARTED IN /hppfs/scratch/04/di38fab/04_TMD/1_Mo
                                           S2_/TZVPnonaug

 CP2K| version string:                 CP2K version 2025.1 (Development Version)
 CP2K| source code revision number:                                  git:47877ba
 CP2K| cp2kflags: omp libint fftw3 libxc parallel scalapack max_contr=4         
 CP2K| is freely available from                            https://www.cp2k.org/
 CP2K| Program compiled at                          Thu Feb 20 16:00:34 CET 2025
 CP2K| Program compiled on                                               login04
 CP2K| Program compiled for                                        Supermuc-foss
 CP2K| Data directory path          /hppfs/work/pn36zo/di38fab/newcp2k/cp2k/data
 CP2K| Input file name                                                    GW.inp

 GLOBAL| Force Environment number                                              1
 GLOBAL| Basis set file name                                        BASIS_MOLOPT
 GLOBAL| Potential file name            /hppfs/work/pn36zo/di38fab/cp2k/data/GTH
 GLOBAL| MM Potential file name                                     MM_POTENTIAL
 GLOBAL| Coordinate file name                                      __STD_INPUT__
 GLOBAL| Method name                                                        CP2K
 GLOBAL| Project name                                                       MoS2
 GLOBAL| Run type                                                         ENERGY
 GLOBAL| FFT library                                                       FFTW3
 GLOBAL| Diagonalization library                                       ScaLAPACK
 GLOBAL| DGEMM library                                                      BLAS
 GLOBAL| Orthonormality check for eigenvectors                          DISABLED
 GLOBAL| Matrix multiplication library                                 ScaLAPACK
 GLOBAL| All-to-all communication in single precision                          F
 GLOBAL| FFTs using library dependent lengths                                  F
 GLOBAL| Grid backend                                                       AUTO
 GLOBAL| Global print level                                               MEDIUM
 GLOBAL| MPI I/O enabled                                                       T
 GLOBAL| Total number of message passing processes                           128
 GLOBAL| Number of threads for this process                                   12
 GLOBAL| This output is from process                                           0
 GLOBAL| OpenMP stack size per thread (OMP_STACKSIZE)                    default
 GLOBAL| CPU model name             Intel(R) Xeon(R) Platinum 8174 CPU @ 3.10GHz

 MEMORY| system memory details [Kb]
 MEMORY|                        rank 0           min           max       average
 MEMORY| MemTotal            792068888     792068852     792069356     792068921
 MEMORY| MemFree             778692036     778546608     780523104     778799394
 MEMORY| Buffers                     0             0             0             0
 MEMORY| Cached                2287592       2195804       2303552       2289825
 MEMORY| Slab                  1199468        826460       1222624       1181845
 MEMORY| SReclaimable           270932        161340        278628        267170
 MEMORY| MemLikelyFree       781250560     781125076     782880248     781356391


 *** Fundamental physical constants (SI units) ***

 *** Literature: B. J. Mohr and B. N. Taylor,
 ***             CODATA recommended values of the fundamental physical
 ***             constants: 2006, Web Version 5.1
 ***             http://physics.nist.gov/constants

 Speed of light in vacuum [m/s]                             2.99792458000000E+08
 Magnetic constant or permeability of vacuum [N/A**2]       1.25663706143592E-06
 Electric constant or permittivity of vacuum [F/m]          8.85418781762039E-12
 Planck constant (h) [J*s]                                  6.62606896000000E-34
 Planck constant (h-bar) [J*s]                              1.05457162825177E-34
 Elementary charge [C]                                      1.60217648700000E-19
 Electron mass [kg]                                         9.10938215000000E-31
 Electron g factor [ ]                                     -2.00231930436220E+00
 Proton mass [kg]                                           1.67262163700000E-27
 Fine-structure constant                                    7.29735253760000E-03
 Rydberg constant [1/m]                                     1.09737315685270E+07
 Avogadro constant [1/mol]                                  6.02214179000000E+23
 Boltzmann constant [J/K]                                   1.38065040000000E-23
 Atomic mass unit [kg]                                      1.66053878200000E-27
 Bohr radius [m]                                            5.29177208590000E-11

 *** Conversion factors ***

 [u] -> [a.u.]                                              1.82288848426455E+03
 [Angstrom] -> [Bohr] = [a.u.]                              1.88972613288564E+00
 [a.u.] = [Bohr] -> [Angstrom]                              5.29177208590000E-01
 [a.u.] -> [s]                                              2.41888432650478E-17
 [a.u.] -> [fs]                                             2.41888432650478E-02
 [a.u.] -> [J]                                              4.35974393937059E-18
 [a.u.] -> [N]                                              8.23872205491840E-08
 [a.u.] -> [K]                                              3.15774647902944E+05
 [a.u.] -> [kJ/mol]                                         2.62549961709828E+03
 [a.u.] -> [kcal/mol]                                       6.27509468713739E+02
 [a.u.] -> [Pa]                                             2.94210107994716E+13
 [a.u.] -> [bar]                                            2.94210107994716E+08
 [a.u.] -> [atm]                                            2.90362800883016E+08
 [a.u.] -> [eV]                                             2.72113838565563E+01
 [a.u.] -> [Hz]                                             6.57968392072181E+15
 [a.u.] -> [1/cm] (wave numbers)                            2.19474631370540E+05
 [a.u./Bohr**2] -> [1/cm]                                   5.14048714338585E+03
 

 CELL_TOP| Volume [angstrom^3]:                                       131.694613
 CELL_TOP| Vector a [angstrom     3.184     0.000     0.000   |a| =     3.184000
 CELL_TOP| Vector b [angstrom    -1.592     2.757     0.000   |b| =     3.184000
 CELL_TOP| Vector c [angstrom     0.000     0.000    15.000   |c| =    15.000000
 CELL_TOP| Angle (b,c), alpha [degree]:                                90.000000
 CELL_TOP| Angle (a,c), beta  [degree]:                                90.000000
 CELL_TOP| Angle (a,b), gamma [degree]:                               120.000000
 CELL_TOP| Numerically orthorhombic:                                          NO
 CELL_TOP| Periodicity                                                        XY

 GENERATE|  Preliminary Number of Bonds generated:                             0
 GENERATE|  Achieved consistency in connectivity generation.

 CELL| Volume [angstrom^3]:                                           131.694613
 CELL| Vector a [angstrom]:       3.184     0.000     0.000   |a| =     3.184000
 CELL| Vector b [angstrom]:      -1.592     2.757     0.000   |b| =     3.184000
 CELL| Vector c [angstrom]:       0.000     0.000    15.000   |c| =    15.000000
 CELL| Angle (b,c), alpha [degree]:                                    90.000000
 CELL| Angle (a,c), beta  [degree]:                                    90.000000
 CELL| Angle (a,b), gamma [degree]:                                   120.000000
 CELL| Numerically orthorhombic:                                              NO
 CELL| Periodicity                                                            XY

 CELL_REF| Volume [angstrom^3]:                                       131.694613
 CELL_REF| Vector a [angstrom     3.184     0.000     0.000   |a| =     3.184000
 CELL_REF| Vector b [angstrom    -1.592     2.757     0.000   |b| =     3.184000
 CELL_REF| Vector c [angstrom     0.000     0.000    15.000   |c| =    15.000000
 CELL_REF| Angle (b,c), alpha [degree]:                                90.000000
 CELL_REF| Angle (a,c), beta  [degree]:                                90.000000
 CELL_REF| Angle (a,b), gamma [degree]:                               120.000000
 CELL_REF| Numerically orthorhombic:                                          NO
 CELL_REF| Periodicity                                                        XY

 *** WARNING in cryssym.F:180 :: Symmetry library SPGLIB not available ***


 *******************************************************************************
                                    Kpoints
 *******************************************************************************
 BRILLOUIN| K-point scheme                                        Monkhorst-Pack
 BRILLOUIN| K-Point grid                                            32   32    1
 BRILLOUIN| Accuracy in Symmetry determination                      0.100000E-05
 BRILLOUIN| K-Point point group symmetrization                               OFF
 BRILLOUIN| Wavefunction type                                            COMPLEX
 BRILLOUIN| List of Kpoints [2 Pi/Bohr]                                      512
 BRILLOUIN| Number           Weight            X              Y              Z
 BRILLOUIN|     1           0.00195       -0.48438       -0.48438        0.00000
 BRILLOUIN|     2           0.00195       -0.48438       -0.45312        0.00000
 BRILLOUIN|     3           0.00195       -0.48438       -0.42188        0.00000
 BRILLOUIN|     4           0.00195       -0.48438       -0.39062        0.00000
 BRILLOUIN|     5           0.00195       -0.48438       -0.35938        0.00000
 BRILLOUIN|     6           0.00195       -0.48438       -0.32812        0.00000
 BRILLOUIN|     7           0.00195       -0.48438       -0.29688        0.00000
 BRILLOUIN|     8           0.00195       -0.48438       -0.26562        0.00000
 BRILLOUIN|     9           0.00195       -0.48438       -0.23438        0.00000
 BRILLOUIN|    10           0.00195       -0.48438       -0.20312        0.00000
 BRILLOUIN|    11           0.00195       -0.48438       -0.17188        0.00000
 BRILLOUIN|    12           0.00195       -0.48438       -0.14062        0.00000
 BRILLOUIN|    13           0.00195       -0.48438       -0.10938        0.00000
 BRILLOUIN|    14           0.00195       -0.48438       -0.07812        0.00000
 BRILLOUIN|    15           0.00195       -0.48438       -0.04688        0.00000
 BRILLOUIN|    16           0.00195       -0.48438       -0.01562        0.00000
 BRILLOUIN|    17           0.00195       -0.48438        0.01562        0.00000
 BRILLOUIN|    18           0.00195       -0.48438        0.04688        0.00000
 BRILLOUIN|    19           0.00195       -0.48438        0.07812        0.00000
 BRILLOUIN|    20           0.00195       -0.48438        0.10938        0.00000
 BRILLOUIN|    21           0.00195       -0.48438        0.14062        0.00000
 BRILLOUIN|    22           0.00195       -0.48438        0.17188        0.00000
 BRILLOUIN|    23           0.00195       -0.48438        0.20312        0.00000
 BRILLOUIN|    24           0.00195       -0.48438        0.23438        0.00000
 BRILLOUIN|    25           0.00195       -0.48438        0.26562        0.00000
 BRILLOUIN|    26           0.00195       -0.48438        0.29688        0.00000
 BRILLOUIN|    27           0.00195       -0.48438        0.32812        0.00000
 BRILLOUIN|    28           0.00195       -0.48438        0.35938        0.00000
 BRILLOUIN|    29           0.00195       -0.48438        0.39062        0.00000
 BRILLOUIN|    30           0.00195       -0.48438        0.42188        0.00000
 BRILLOUIN|    31           0.00195       -0.48438        0.45312        0.00000
 BRILLOUIN|    32           0.00195       -0.48438        0.48438        0.00000
 BRILLOUIN|    33           0.00195       -0.45312       -0.48438        0.00000
 BRILLOUIN|    34           0.00195       -0.45312       -0.45312        0.00000
 BRILLOUIN|    35           0.00195       -0.45312       -0.42188        0.00000
 BRILLOUIN|    36           0.00195       -0.45312       -0.39062        0.00000
 BRILLOUIN|    37           0.00195       -0.45312       -0.35938        0.00000
 BRILLOUIN|    38           0.00195       -0.45312       -0.32812        0.00000
 BRILLOUIN|    39           0.00195       -0.45312       -0.29688        0.00000
 BRILLOUIN|    40           0.00195       -0.45312       -0.26562        0.00000
 BRILLOUIN|    41           0.00195       -0.45312       -0.23438        0.00000
 BRILLOUIN|    42           0.00195       -0.45312       -0.20312        0.00000
 BRILLOUIN|    43           0.00195       -0.45312       -0.17188        0.00000
 BRILLOUIN|    44           0.00195       -0.45312       -0.14062        0.00000
 BRILLOUIN|    45           0.00195       -0.45312       -0.10938        0.00000
 BRILLOUIN|    46           0.00195       -0.45312       -0.07812        0.00000
 BRILLOUIN|    47           0.00195       -0.45312       -0.04688        0.00000
 BRILLOUIN|    48           0.00195       -0.45312       -0.01562        0.00000
 BRILLOUIN|    49           0.00195       -0.45312        0.01562        0.00000
 BRILLOUIN|    50           0.00195       -0.45312        0.04688        0.00000
 BRILLOUIN|    51           0.00195       -0.45312        0.07812        0.00000
 BRILLOUIN|    52           0.00195       -0.45312        0.10938        0.00000
 BRILLOUIN|    53           0.00195       -0.45312        0.14062        0.00000
 BRILLOUIN|    54           0.00195       -0.45312        0.17188        0.00000
 BRILLOUIN|    55           0.00195       -0.45312        0.20312        0.00000
 BRILLOUIN|    56           0.00195       -0.45312        0.23438        0.00000
 BRILLOUIN|    57           0.00195       -0.45312        0.26562        0.00000
 BRILLOUIN|    58           0.00195       -0.45312        0.29688        0.00000
 BRILLOUIN|    59           0.00195       -0.45312        0.32812        0.00000
 BRILLOUIN|    60           0.00195       -0.45312        0.35938        0.00000
 BRILLOUIN|    61           0.00195       -0.45312        0.39062        0.00000
 BRILLOUIN|    62           0.00195       -0.45312        0.42188        0.00000
 BRILLOUIN|    63           0.00195       -0.45312        0.45312        0.00000
 BRILLOUIN|    64           0.00195       -0.45312        0.48438        0.00000
 BRILLOUIN|    65           0.00195       -0.42188       -0.48438        0.00000
 BRILLOUIN|    66           0.00195       -0.42188       -0.45312        0.00000
 BRILLOUIN|    67           0.00195       -0.42188       -0.42188        0.00000
 BRILLOUIN|    68           0.00195       -0.42188       -0.39062        0.00000
 BRILLOUIN|    69           0.00195       -0.42188       -0.35938        0.00000
 BRILLOUIN|    70           0.00195       -0.42188       -0.32812        0.00000
 BRILLOUIN|    71           0.00195       -0.42188       -0.29688        0.00000
 BRILLOUIN|    72           0.00195       -0.42188       -0.26562        0.00000
 BRILLOUIN|    73           0.00195       -0.42188       -0.23438        0.00000
 BRILLOUIN|    74           0.00195       -0.42188       -0.20312        0.00000
 BRILLOUIN|    75           0.00195       -0.42188       -0.17188        0.00000
 BRILLOUIN|    76           0.00195       -0.42188       -0.14062        0.00000
 BRILLOUIN|    77           0.00195       -0.42188       -0.10938        0.00000
 BRILLOUIN|    78           0.00195       -0.42188       -0.07812        0.00000
 BRILLOUIN|    79           0.00195       -0.42188       -0.04688        0.00000
 BRILLOUIN|    80           0.00195       -0.42188       -0.01562        0.00000
 BRILLOUIN|    81           0.00195       -0.42188        0.01562        0.00000
 BRILLOUIN|    82           0.00195       -0.42188        0.04688        0.00000
 BRILLOUIN|    83           0.00195       -0.42188        0.07812        0.00000
 BRILLOUIN|    84           0.00195       -0.42188        0.10938        0.00000
 BRILLOUIN|    85           0.00195       -0.42188        0.14062        0.00000
 BRILLOUIN|    86           0.00195       -0.42188        0.17188        0.00000
 BRILLOUIN|    87           0.00195       -0.42188        0.20312        0.00000
 BRILLOUIN|    88           0.00195       -0.42188        0.23438        0.00000
 BRILLOUIN|    89           0.00195       -0.42188        0.26562        0.00000
 BRILLOUIN|    90           0.00195       -0.42188        0.29688        0.00000
 BRILLOUIN|    91           0.00195       -0.42188        0.32812        0.00000
 BRILLOUIN|    92           0.00195       -0.42188        0.35938        0.00000
 BRILLOUIN|    93           0.00195       -0.42188        0.39062        0.00000
 BRILLOUIN|    94           0.00195       -0.42188        0.42188        0.00000
 BRILLOUIN|    95           0.00195       -0.42188        0.45312        0.00000
 BRILLOUIN|    96           0.00195       -0.42188        0.48438        0.00000
 BRILLOUIN|    97           0.00195       -0.39062       -0.48438        0.00000
 BRILLOUIN|    98           0.00195       -0.39062       -0.45312        0.00000
 BRILLOUIN|    99           0.00195       -0.39062       -0.42188        0.00000
 BRILLOUIN|   100           0.00195       -0.39062       -0.39062        0.00000
 BRILLOUIN|   101           0.00195       -0.39062       -0.35938        0.00000
 BRILLOUIN|   102           0.00195       -0.39062       -0.32812        0.00000
 BRILLOUIN|   103           0.00195       -0.39062       -0.29688        0.00000
 BRILLOUIN|   104           0.00195       -0.39062       -0.26562        0.00000
 BRILLOUIN|   105           0.00195       -0.39062       -0.23438        0.00000
 BRILLOUIN|   106           0.00195       -0.39062       -0.20312        0.00000
 BRILLOUIN|   107           0.00195       -0.39062       -0.17188        0.00000
 BRILLOUIN|   108           0.00195       -0.39062       -0.14062        0.00000
 BRILLOUIN|   109           0.00195       -0.39062       -0.10938        0.00000
 BRILLOUIN|   110           0.00195       -0.39062       -0.07812        0.00000
 BRILLOUIN|   111           0.00195       -0.39062       -0.04688        0.00000
 BRILLOUIN|   112           0.00195       -0.39062       -0.01562        0.00000
 BRILLOUIN|   113           0.00195       -0.39062        0.01562        0.00000
 BRILLOUIN|   114           0.00195       -0.39062        0.04688        0.00000
 BRILLOUIN|   115           0.00195       -0.39062        0.07812        0.00000
 BRILLOUIN|   116           0.00195       -0.39062        0.10938        0.00000
 BRILLOUIN|   117           0.00195       -0.39062        0.14062        0.00000
 BRILLOUIN|   118           0.00195       -0.39062        0.17188        0.00000
 BRILLOUIN|   119           0.00195       -0.39062        0.20312        0.00000
 BRILLOUIN|   120           0.00195       -0.39062        0.23438        0.00000
 BRILLOUIN|   121           0.00195       -0.39062        0.26562        0.00000
 BRILLOUIN|   122           0.00195       -0.39062        0.29688        0.00000
 BRILLOUIN|   123           0.00195       -0.39062        0.32812        0.00000
 BRILLOUIN|   124           0.00195       -0.39062        0.35938        0.00000
 BRILLOUIN|   125           0.00195       -0.39062        0.39062        0.00000
 BRILLOUIN|   126           0.00195       -0.39062        0.42188        0.00000
 BRILLOUIN|   127           0.00195       -0.39062        0.45312        0.00000
 BRILLOUIN|   128           0.00195       -0.39062        0.48438        0.00000
 BRILLOUIN|   129           0.00195       -0.35938       -0.48438        0.00000
 BRILLOUIN|   130           0.00195       -0.35938       -0.45312        0.00000
 BRILLOUIN|   131           0.00195       -0.35938       -0.42188        0.00000
 BRILLOUIN|   132           0.00195       -0.35938       -0.39062        0.00000
 BRILLOUIN|   133           0.00195       -0.35938       -0.35938        0.00000
 BRILLOUIN|   134           0.00195       -0.35938       -0.32812        0.00000
 BRILLOUIN|   135           0.00195       -0.35938       -0.29688        0.00000
 BRILLOUIN|   136           0.00195       -0.35938       -0.26562        0.00000
 BRILLOUIN|   137           0.00195       -0.35938       -0.23438        0.00000
 BRILLOUIN|   138           0.00195       -0.35938       -0.20312        0.00000
 BRILLOUIN|   139           0.00195       -0.35938       -0.17188        0.00000
 BRILLOUIN|   140           0.00195       -0.35938       -0.14062        0.00000
 BRILLOUIN|   141           0.00195       -0.35938       -0.10938        0.00000
 BRILLOUIN|   142           0.00195       -0.35938       -0.07812        0.00000
 BRILLOUIN|   143           0.00195       -0.35938       -0.04688        0.00000
 BRILLOUIN|   144           0.00195       -0.35938       -0.01562        0.00000
 BRILLOUIN|   145           0.00195       -0.35938        0.01562        0.00000
 BRILLOUIN|   146           0.00195       -0.35938        0.04688        0.00000
 BRILLOUIN|   147           0.00195       -0.35938        0.07812        0.00000
 BRILLOUIN|   148           0.00195       -0.35938        0.10938        0.00000
 BRILLOUIN|   149           0.00195       -0.35938        0.14062        0.00000
 BRILLOUIN|   150           0.00195       -0.35938        0.17188        0.00000
 BRILLOUIN|   151           0.00195       -0.35938        0.20312        0.00000
 BRILLOUIN|   152           0.00195       -0.35938        0.23438        0.00000
 BRILLOUIN|   153           0.00195       -0.35938        0.26562        0.00000
 BRILLOUIN|   154           0.00195       -0.35938        0.29688        0.00000
 BRILLOUIN|   155           0.00195       -0.35938        0.32812        0.00000
 BRILLOUIN|   156           0.00195       -0.35938        0.35938        0.00000
 BRILLOUIN|   157           0.00195       -0.35938        0.39062        0.00000
 BRILLOUIN|   158           0.00195       -0.35938        0.42188        0.00000
 BRILLOUIN|   159           0.00195       -0.35938        0.45312        0.00000
 BRILLOUIN|   160           0.00195       -0.35938        0.48438        0.00000
 BRILLOUIN|   161           0.00195       -0.32812       -0.48438        0.00000
 BRILLOUIN|   162           0.00195       -0.32812       -0.45312        0.00000
 BRILLOUIN|   163           0.00195       -0.32812       -0.42188        0.00000
 BRILLOUIN|   164           0.00195       -0.32812       -0.39062        0.00000
 BRILLOUIN|   165           0.00195       -0.32812       -0.35938        0.00000
 BRILLOUIN|   166           0.00195       -0.32812       -0.32812        0.00000
 BRILLOUIN|   167           0.00195       -0.32812       -0.29688        0.00000
 BRILLOUIN|   168           0.00195       -0.32812       -0.26562        0.00000
 BRILLOUIN|   169           0.00195       -0.32812       -0.23438        0.00000
 BRILLOUIN|   170           0.00195       -0.32812       -0.20312        0.00000
 BRILLOUIN|   171           0.00195       -0.32812       -0.17188        0.00000
 BRILLOUIN|   172           0.00195       -0.32812       -0.14062        0.00000
 BRILLOUIN|   173           0.00195       -0.32812       -0.10938        0.00000
 BRILLOUIN|   174           0.00195       -0.32812       -0.07812        0.00000
 BRILLOUIN|   175           0.00195       -0.32812       -0.04688        0.00000
 BRILLOUIN|   176           0.00195       -0.32812       -0.01562        0.00000
 BRILLOUIN|   177           0.00195       -0.32812        0.01562        0.00000
 BRILLOUIN|   178           0.00195       -0.32812        0.04688        0.00000
 BRILLOUIN|   179           0.00195       -0.32812        0.07812        0.00000
 BRILLOUIN|   180           0.00195       -0.32812        0.10938        0.00000
 BRILLOUIN|   181           0.00195       -0.32812        0.14062        0.00000
 BRILLOUIN|   182           0.00195       -0.32812        0.17188        0.00000
 BRILLOUIN|   183           0.00195       -0.32812        0.20312        0.00000
 BRILLOUIN|   184           0.00195       -0.32812        0.23438        0.00000
 BRILLOUIN|   185           0.00195       -0.32812        0.26562        0.00000
 BRILLOUIN|   186           0.00195       -0.32812        0.29688        0.00000
 BRILLOUIN|   187           0.00195       -0.32812        0.32812        0.00000
 BRILLOUIN|   188           0.00195       -0.32812        0.35938        0.00000
 BRILLOUIN|   189           0.00195       -0.32812        0.39062        0.00000
 BRILLOUIN|   190           0.00195       -0.32812        0.42188        0.00000
 BRILLOUIN|   191           0.00195       -0.32812        0.45312        0.00000
 BRILLOUIN|   192           0.00195       -0.32812        0.48438        0.00000
 BRILLOUIN|   193           0.00195       -0.29688       -0.48438        0.00000
 BRILLOUIN|   194           0.00195       -0.29688       -0.45312        0.00000
 BRILLOUIN|   195           0.00195       -0.29688       -0.42188        0.00000
 BRILLOUIN|   196           0.00195       -0.29688       -0.39062        0.00000
 BRILLOUIN|   197           0.00195       -0.29688       -0.35938        0.00000
 BRILLOUIN|   198           0.00195       -0.29688       -0.32812        0.00000
 BRILLOUIN|   199           0.00195       -0.29688       -0.29688        0.00000
 BRILLOUIN|   200           0.00195       -0.29688       -0.26562        0.00000
 BRILLOUIN|   201           0.00195       -0.29688       -0.23438        0.00000
 BRILLOUIN|   202           0.00195       -0.29688       -0.20312        0.00000
 BRILLOUIN|   203           0.00195       -0.29688       -0.17188        0.00000
 BRILLOUIN|   204           0.00195       -0.29688       -0.14062        0.00000
 BRILLOUIN|   205           0.00195       -0.29688       -0.10938        0.00000
 BRILLOUIN|   206           0.00195       -0.29688       -0.07812        0.00000
 BRILLOUIN|   207           0.00195       -0.29688       -0.04688        0.00000
 BRILLOUIN|   208           0.00195       -0.29688       -0.01562        0.00000
 BRILLOUIN|   209           0.00195       -0.29688        0.01562        0.00000
 BRILLOUIN|   210           0.00195       -0.29688        0.04688        0.00000
 BRILLOUIN|   211           0.00195       -0.29688        0.07812        0.00000
 BRILLOUIN|   212           0.00195       -0.29688        0.10938        0.00000
 BRILLOUIN|   213           0.00195       -0.29688        0.14062        0.00000
 BRILLOUIN|   214           0.00195       -0.29688        0.17188        0.00000
 BRILLOUIN|   215           0.00195       -0.29688        0.20312        0.00000
 BRILLOUIN|   216           0.00195       -0.29688        0.23438        0.00000
 BRILLOUIN|   217           0.00195       -0.29688        0.26562        0.00000
 BRILLOUIN|   218           0.00195       -0.29688        0.29688        0.00000
 BRILLOUIN|   219           0.00195       -0.29688        0.32812        0.00000
 BRILLOUIN|   220           0.00195       -0.29688        0.35938        0.00000
 BRILLOUIN|   221           0.00195       -0.29688        0.39062        0.00000
 BRILLOUIN|   222           0.00195       -0.29688        0.42188        0.00000
 BRILLOUIN|   223           0.00195       -0.29688        0.45312        0.00000
 BRILLOUIN|   224           0.00195       -0.29688        0.48438        0.00000
 BRILLOUIN|   225           0.00195       -0.26562       -0.48438        0.00000
 BRILLOUIN|   226           0.00195       -0.26562       -0.45312        0.00000
 BRILLOUIN|   227           0.00195       -0.26562       -0.42188        0.00000
 BRILLOUIN|   228           0.00195       -0.26562       -0.39062        0.00000
 BRILLOUIN|   229           0.00195       -0.26562       -0.35938        0.00000
 BRILLOUIN|   230           0.00195       -0.26562       -0.32812        0.00000
 BRILLOUIN|   231           0.00195       -0.26562       -0.29688        0.00000
 BRILLOUIN|   232           0.00195       -0.26562       -0.26562        0.00000
 BRILLOUIN|   233           0.00195       -0.26562       -0.23438        0.00000
 BRILLOUIN|   234           0.00195       -0.26562       -0.20312        0.00000
 BRILLOUIN|   235           0.00195       -0.26562       -0.17188        0.00000
 BRILLOUIN|   236           0.00195       -0.26562       -0.14062        0.00000
 BRILLOUIN|   237           0.00195       -0.26562       -0.10938        0.00000
 BRILLOUIN|   238           0.00195       -0.26562       -0.07812        0.00000
 BRILLOUIN|   239           0.00195       -0.26562       -0.04688        0.00000
 BRILLOUIN|   240           0.00195       -0.26562       -0.01562        0.00000
 BRILLOUIN|   241           0.00195       -0.26562        0.01562        0.00000
 BRILLOUIN|   242           0.00195       -0.26562        0.04688        0.00000
 BRILLOUIN|   243           0.00195       -0.26562        0.07812        0.00000
 BRILLOUIN|   244           0.00195       -0.26562        0.10938        0.00000
 BRILLOUIN|   245           0.00195       -0.26562        0.14062        0.00000
 BRILLOUIN|   246           0.00195       -0.26562        0.17188        0.00000
 BRILLOUIN|   247           0.00195       -0.26562        0.20312        0.00000
 BRILLOUIN|   248           0.00195       -0.26562        0.23438        0.00000
 BRILLOUIN|   249           0.00195       -0.26562        0.26562        0.00000
 BRILLOUIN|   250           0.00195       -0.26562        0.29688        0.00000
 BRILLOUIN|   251           0.00195       -0.26562        0.32812        0.00000
 BRILLOUIN|   252           0.00195       -0.26562        0.35938        0.00000
 BRILLOUIN|   253           0.00195       -0.26562        0.39062        0.00000
 BRILLOUIN|   254           0.00195       -0.26562        0.42188        0.00000
 BRILLOUIN|   255           0.00195       -0.26562        0.45312        0.00000
 BRILLOUIN|   256           0.00195       -0.26562        0.48438        0.00000
 BRILLOUIN|   257           0.00195       -0.23438       -0.48438        0.00000
 BRILLOUIN|   258           0.00195       -0.23438       -0.45312        0.00000
 BRILLOUIN|   259           0.00195       -0.23438       -0.42188        0.00000
 BRILLOUIN|   260           0.00195       -0.23438       -0.39062        0.00000
 BRILLOUIN|   261           0.00195       -0.23438       -0.35938        0.00000
 BRILLOUIN|   262           0.00195       -0.23438       -0.32812        0.00000
 BRILLOUIN|   263           0.00195       -0.23438       -0.29688        0.00000
 BRILLOUIN|   264           0.00195       -0.23438       -0.26562        0.00000
 BRILLOUIN|   265           0.00195       -0.23438       -0.23438        0.00000
 BRILLOUIN|   266           0.00195       -0.23438       -0.20312        0.00000
 BRILLOUIN|   267           0.00195       -0.23438       -0.17188        0.00000
 BRILLOUIN|   268           0.00195       -0.23438       -0.14062        0.00000
 BRILLOUIN|   269           0.00195       -0.23438       -0.10938        0.00000
 BRILLOUIN|   270           0.00195       -0.23438       -0.07812        0.00000
 BRILLOUIN|   271           0.00195       -0.23438       -0.04688        0.00000
 BRILLOUIN|   272           0.00195       -0.23438       -0.01562        0.00000
 BRILLOUIN|   273           0.00195       -0.23438        0.01562        0.00000
 BRILLOUIN|   274           0.00195       -0.23438        0.04688        0.00000
 BRILLOUIN|   275           0.00195       -0.23438        0.07812        0.00000
 BRILLOUIN|   276           0.00195       -0.23438        0.10938        0.00000
 BRILLOUIN|   277           0.00195       -0.23438        0.14062        0.00000
 BRILLOUIN|   278           0.00195       -0.23438        0.17188        0.00000
 BRILLOUIN|   279           0.00195       -0.23438        0.20312        0.00000
 BRILLOUIN|   280           0.00195       -0.23438        0.23438        0.00000
 BRILLOUIN|   281           0.00195       -0.23438        0.26562        0.00000
 BRILLOUIN|   282           0.00195       -0.23438        0.29688        0.00000
 BRILLOUIN|   283           0.00195       -0.23438        0.32812        0.00000
 BRILLOUIN|   284           0.00195       -0.23438        0.35938        0.00000
 BRILLOUIN|   285           0.00195       -0.23438        0.39062        0.00000
 BRILLOUIN|   286           0.00195       -0.23438        0.42188        0.00000
 BRILLOUIN|   287           0.00195       -0.23438        0.45312        0.00000
 BRILLOUIN|   288           0.00195       -0.23438        0.48438        0.00000
 BRILLOUIN|   289           0.00195       -0.20312       -0.48438        0.00000
 BRILLOUIN|   290           0.00195       -0.20312       -0.45312        0.00000
 BRILLOUIN|   291           0.00195       -0.20312       -0.42188        0.00000
 BRILLOUIN|   292           0.00195       -0.20312       -0.39062        0.00000
 BRILLOUIN|   293           0.00195       -0.20312       -0.35938        0.00000
 BRILLOUIN|   294           0.00195       -0.20312       -0.32812        0.00000
 BRILLOUIN|   295           0.00195       -0.20312       -0.29688        0.00000
 BRILLOUIN|   296           0.00195       -0.20312       -0.26562        0.00000
 BRILLOUIN|   297           0.00195       -0.20312       -0.23438        0.00000
 BRILLOUIN|   298           0.00195       -0.20312       -0.20312        0.00000
 BRILLOUIN|   299           0.00195       -0.20312       -0.17188        0.00000
 BRILLOUIN|   300           0.00195       -0.20312       -0.14062        0.00000
 BRILLOUIN|   301           0.00195       -0.20312       -0.10938        0.00000
 BRILLOUIN|   302           0.00195       -0.20312       -0.07812        0.00000
 BRILLOUIN|   303           0.00195       -0.20312       -0.04688        0.00000
 BRILLOUIN|   304           0.00195       -0.20312       -0.01562        0.00000
 BRILLOUIN|   305           0.00195       -0.20312        0.01562        0.00000
 BRILLOUIN|   306           0.00195       -0.20312        0.04688        0.00000
 BRILLOUIN|   307           0.00195       -0.20312        0.07812        0.00000
 BRILLOUIN|   308           0.00195       -0.20312        0.10938        0.00000
 BRILLOUIN|   309           0.00195       -0.20312        0.14062        0.00000
 BRILLOUIN|   310           0.00195       -0.20312        0.17188        0.00000
 BRILLOUIN|   311           0.00195       -0.20312        0.20312        0.00000
 BRILLOUIN|   312           0.00195       -0.20312        0.23438        0.00000
 BRILLOUIN|   313           0.00195       -0.20312        0.26562        0.00000
 BRILLOUIN|   314           0.00195       -0.20312        0.29688        0.00000
 BRILLOUIN|   315           0.00195       -0.20312        0.32812        0.00000
 BRILLOUIN|   316           0.00195       -0.20312        0.35938        0.00000
 BRILLOUIN|   317           0.00195       -0.20312        0.39062        0.00000
 BRILLOUIN|   318           0.00195       -0.20312        0.42188        0.00000
 BRILLOUIN|   319           0.00195       -0.20312        0.45312        0.00000
 BRILLOUIN|   320           0.00195       -0.20312        0.48438        0.00000
 BRILLOUIN|   321           0.00195       -0.17188       -0.48438        0.00000
 BRILLOUIN|   322           0.00195       -0.17188       -0.45312        0.00000
 BRILLOUIN|   323           0.00195       -0.17188       -0.42188        0.00000
 BRILLOUIN|   324           0.00195       -0.17188       -0.39062        0.00000
 BRILLOUIN|   325           0.00195       -0.17188       -0.35938        0.00000
 BRILLOUIN|   326           0.00195       -0.17188       -0.32812        0.00000
 BRILLOUIN|   327           0.00195       -0.17188       -0.29688        0.00000
 BRILLOUIN|   328           0.00195       -0.17188       -0.26562        0.00000
 BRILLOUIN|   329           0.00195       -0.17188       -0.23438        0.00000
 BRILLOUIN|   330           0.00195       -0.17188       -0.20312        0.00000
 BRILLOUIN|   331           0.00195       -0.17188       -0.17188        0.00000
 BRILLOUIN|   332           0.00195       -0.17188       -0.14062        0.00000
 BRILLOUIN|   333           0.00195       -0.17188       -0.10938        0.00000
 BRILLOUIN|   334           0.00195       -0.17188       -0.07812        0.00000
 BRILLOUIN|   335           0.00195       -0.17188       -0.04688        0.00000
 BRILLOUIN|   336           0.00195       -0.17188       -0.01562        0.00000
 BRILLOUIN|   337           0.00195       -0.17188        0.01562        0.00000
 BRILLOUIN|   338           0.00195       -0.17188        0.04688        0.00000
 BRILLOUIN|   339           0.00195       -0.17188        0.07812        0.00000
 BRILLOUIN|   340           0.00195       -0.17188        0.10938        0.00000
 BRILLOUIN|   341           0.00195       -0.17188        0.14062        0.00000
 BRILLOUIN|   342           0.00195       -0.17188        0.17188        0.00000
 BRILLOUIN|   343           0.00195       -0.17188        0.20312        0.00000
 BRILLOUIN|   344           0.00195       -0.17188        0.23438        0.00000
 BRILLOUIN|   345           0.00195       -0.17188        0.26562        0.00000
 BRILLOUIN|   346           0.00195       -0.17188        0.29688        0.00000
 BRILLOUIN|   347           0.00195       -0.17188        0.32812        0.00000
 BRILLOUIN|   348           0.00195       -0.17188        0.35938        0.00000
 BRILLOUIN|   349           0.00195       -0.17188        0.39062        0.00000
 BRILLOUIN|   350           0.00195       -0.17188        0.42188        0.00000
 BRILLOUIN|   351           0.00195       -0.17188        0.45312        0.00000
 BRILLOUIN|   352           0.00195       -0.17188        0.48438        0.00000
 BRILLOUIN|   353           0.00195       -0.14062       -0.48438        0.00000
 BRILLOUIN|   354           0.00195       -0.14062       -0.45312        0.00000
 BRILLOUIN|   355           0.00195       -0.14062       -0.42188        0.00000
 BRILLOUIN|   356           0.00195       -0.14062       -0.39062        0.00000
 BRILLOUIN|   357           0.00195       -0.14062       -0.35938        0.00000
 BRILLOUIN|   358           0.00195       -0.14062       -0.32812        0.00000
 BRILLOUIN|   359           0.00195       -0.14062       -0.29688        0.00000
 BRILLOUIN|   360           0.00195       -0.14062       -0.26562        0.00000
 BRILLOUIN|   361           0.00195       -0.14062       -0.23438        0.00000
 BRILLOUIN|   362           0.00195       -0.14062       -0.20312        0.00000
 BRILLOUIN|   363           0.00195       -0.14062       -0.17188        0.00000
 BRILLOUIN|   364           0.00195       -0.14062       -0.14062        0.00000
 BRILLOUIN|   365           0.00195       -0.14062       -0.10938        0.00000
 BRILLOUIN|   366           0.00195       -0.14062       -0.07812        0.00000
 BRILLOUIN|   367           0.00195       -0.14062       -0.04688        0.00000
 BRILLOUIN|   368           0.00195       -0.14062       -0.01562        0.00000
 BRILLOUIN|   369           0.00195       -0.14062        0.01562        0.00000
 BRILLOUIN|   370           0.00195       -0.14062        0.04688        0.00000
 BRILLOUIN|   371           0.00195       -0.14062        0.07812        0.00000
 BRILLOUIN|   372           0.00195       -0.14062        0.10938        0.00000
 BRILLOUIN|   373           0.00195       -0.14062        0.14062        0.00000
 BRILLOUIN|   374           0.00195       -0.14062        0.17188        0.00000
 BRILLOUIN|   375           0.00195       -0.14062        0.20312        0.00000
 BRILLOUIN|   376           0.00195       -0.14062        0.23438        0.00000
 BRILLOUIN|   377           0.00195       -0.14062        0.26562        0.00000
 BRILLOUIN|   378           0.00195       -0.14062        0.29688        0.00000
 BRILLOUIN|   379           0.00195       -0.14062        0.32812        0.00000
 BRILLOUIN|   380           0.00195       -0.14062        0.35938        0.00000
 BRILLOUIN|   381           0.00195       -0.14062        0.39062        0.00000
 BRILLOUIN|   382           0.00195       -0.14062        0.42188        0.00000
 BRILLOUIN|   383           0.00195       -0.14062        0.45312        0.00000
 BRILLOUIN|   384           0.00195       -0.14062        0.48438        0.00000
 BRILLOUIN|   385           0.00195       -0.10938       -0.48438        0.00000
 BRILLOUIN|   386           0.00195       -0.10938       -0.45312        0.00000
 BRILLOUIN|   387           0.00195       -0.10938       -0.42188        0.00000
 BRILLOUIN|   388           0.00195       -0.10938       -0.39062        0.00000
 BRILLOUIN|   389           0.00195       -0.10938       -0.35938        0.00000
 BRILLOUIN|   390           0.00195       -0.10938       -0.32812        0.00000
 BRILLOUIN|   391           0.00195       -0.10938       -0.29688        0.00000
 BRILLOUIN|   392           0.00195       -0.10938       -0.26562        0.00000
 BRILLOUIN|   393           0.00195       -0.10938       -0.23438        0.00000
 BRILLOUIN|   394           0.00195       -0.10938       -0.20312        0.00000
 BRILLOUIN|   395           0.00195       -0.10938       -0.17188        0.00000
 BRILLOUIN|   396           0.00195       -0.10938       -0.14062        0.00000
 BRILLOUIN|   397           0.00195       -0.10938       -0.10938        0.00000
 BRILLOUIN|   398           0.00195       -0.10938       -0.07812        0.00000
 BRILLOUIN|   399           0.00195       -0.10938       -0.04688        0.00000
 BRILLOUIN|   400           0.00195       -0.10938       -0.01562        0.00000
 BRILLOUIN|   401           0.00195       -0.10938        0.01562        0.00000
 BRILLOUIN|   402           0.00195       -0.10938        0.04688        0.00000
 BRILLOUIN|   403           0.00195       -0.10938        0.07812        0.00000
 BRILLOUIN|   404           0.00195       -0.10938        0.10938        0.00000
 BRILLOUIN|   405           0.00195       -0.10938        0.14062        0.00000
 BRILLOUIN|   406           0.00195       -0.10938        0.17188        0.00000
 BRILLOUIN|   407           0.00195       -0.10938        0.20312        0.00000
 BRILLOUIN|   408           0.00195       -0.10938        0.23438        0.00000
 BRILLOUIN|   409           0.00195       -0.10938        0.26562        0.00000
 BRILLOUIN|   410           0.00195       -0.10938        0.29688        0.00000
 BRILLOUIN|   411           0.00195       -0.10938        0.32812        0.00000
 BRILLOUIN|   412           0.00195       -0.10938        0.35938        0.00000
 BRILLOUIN|   413           0.00195       -0.10938        0.39062        0.00000
 BRILLOUIN|   414           0.00195       -0.10938        0.42188        0.00000
 BRILLOUIN|   415           0.00195       -0.10938        0.45312        0.00000
 BRILLOUIN|   416           0.00195       -0.10938        0.48438        0.00000
 BRILLOUIN|   417           0.00195       -0.07812       -0.48438        0.00000
 BRILLOUIN|   418           0.00195       -0.07812       -0.45312        0.00000
 BRILLOUIN|   419           0.00195       -0.07812       -0.42188        0.00000
 BRILLOUIN|   420           0.00195       -0.07812       -0.39062        0.00000
 BRILLOUIN|   421           0.00195       -0.07812       -0.35938        0.00000
 BRILLOUIN|   422           0.00195       -0.07812       -0.32812        0.00000
 BRILLOUIN|   423           0.00195       -0.07812       -0.29688        0.00000
 BRILLOUIN|   424           0.00195       -0.07812       -0.26562        0.00000
 BRILLOUIN|   425           0.00195       -0.07812       -0.23438        0.00000
 BRILLOUIN|   426           0.00195       -0.07812       -0.20312        0.00000
 BRILLOUIN|   427           0.00195       -0.07812       -0.17188        0.00000
 BRILLOUIN|   428           0.00195       -0.07812       -0.14062        0.00000
 BRILLOUIN|   429           0.00195       -0.07812       -0.10938        0.00000
 BRILLOUIN|   430           0.00195       -0.07812       -0.07812        0.00000
 BRILLOUIN|   431           0.00195       -0.07812       -0.04688        0.00000
 BRILLOUIN|   432           0.00195       -0.07812       -0.01562        0.00000
 BRILLOUIN|   433           0.00195       -0.07812        0.01562        0.00000
 BRILLOUIN|   434           0.00195       -0.07812        0.04688        0.00000
 BRILLOUIN|   435           0.00195       -0.07812        0.07812        0.00000
 BRILLOUIN|   436           0.00195       -0.07812        0.10938        0.00000
 BRILLOUIN|   437           0.00195       -0.07812        0.14062        0.00000
 BRILLOUIN|   438           0.00195       -0.07812        0.17188        0.00000
 BRILLOUIN|   439           0.00195       -0.07812        0.20312        0.00000
 BRILLOUIN|   440           0.00195       -0.07812        0.23438        0.00000
 BRILLOUIN|   441           0.00195       -0.07812        0.26562        0.00000
 BRILLOUIN|   442           0.00195       -0.07812        0.29688        0.00000
 BRILLOUIN|   443           0.00195       -0.07812        0.32812        0.00000
 BRILLOUIN|   444           0.00195       -0.07812        0.35938        0.00000
 BRILLOUIN|   445           0.00195       -0.07812        0.39062        0.00000
 BRILLOUIN|   446           0.00195       -0.07812        0.42188        0.00000
 BRILLOUIN|   447           0.00195       -0.07812        0.45312        0.00000
 BRILLOUIN|   448           0.00195       -0.07812        0.48438        0.00000
 BRILLOUIN|   449           0.00195       -0.04688       -0.48438        0.00000
 BRILLOUIN|   450           0.00195       -0.04688       -0.45312        0.00000
 BRILLOUIN|   451           0.00195       -0.04688       -0.42188        0.00000
 BRILLOUIN|   452           0.00195       -0.04688       -0.39062        0.00000
 BRILLOUIN|   453           0.00195       -0.04688       -0.35938        0.00000
 BRILLOUIN|   454           0.00195       -0.04688       -0.32812        0.00000
 BRILLOUIN|   455           0.00195       -0.04688       -0.29688        0.00000
 BRILLOUIN|   456           0.00195       -0.04688       -0.26562        0.00000
 BRILLOUIN|   457           0.00195       -0.04688       -0.23438        0.00000
 BRILLOUIN|   458           0.00195       -0.04688       -0.20312        0.00000
 BRILLOUIN|   459           0.00195       -0.04688       -0.17188        0.00000
 BRILLOUIN|   460           0.00195       -0.04688       -0.14062        0.00000
 BRILLOUIN|   461           0.00195       -0.04688       -0.10938        0.00000
 BRILLOUIN|   462           0.00195       -0.04688       -0.07812        0.00000
 BRILLOUIN|   463           0.00195       -0.04688       -0.04688        0.00000
 BRILLOUIN|   464           0.00195       -0.04688       -0.01562        0.00000
 BRILLOUIN|   465           0.00195       -0.04688        0.01562        0.00000
 BRILLOUIN|   466           0.00195       -0.04688        0.04688        0.00000
 BRILLOUIN|   467           0.00195       -0.04688        0.07812        0.00000
 BRILLOUIN|   468           0.00195       -0.04688        0.10938        0.00000
 BRILLOUIN|   469           0.00195       -0.04688        0.14062        0.00000
 BRILLOUIN|   470           0.00195       -0.04688        0.17188        0.00000
 BRILLOUIN|   471           0.00195       -0.04688        0.20312        0.00000
 BRILLOUIN|   472           0.00195       -0.04688        0.23438        0.00000
 BRILLOUIN|   473           0.00195       -0.04688        0.26562        0.00000
 BRILLOUIN|   474           0.00195       -0.04688        0.29688        0.00000
 BRILLOUIN|   475           0.00195       -0.04688        0.32812        0.00000
 BRILLOUIN|   476           0.00195       -0.04688        0.35938        0.00000
 BRILLOUIN|   477           0.00195       -0.04688        0.39062        0.00000
 BRILLOUIN|   478           0.00195       -0.04688        0.42188        0.00000
 BRILLOUIN|   479           0.00195       -0.04688        0.45312        0.00000
 BRILLOUIN|   480           0.00195       -0.04688        0.48438        0.00000
 BRILLOUIN|   481           0.00195       -0.01562       -0.48438        0.00000
 BRILLOUIN|   482           0.00195       -0.01562       -0.45312        0.00000
 BRILLOUIN|   483           0.00195       -0.01562       -0.42188        0.00000
 BRILLOUIN|   484           0.00195       -0.01562       -0.39062        0.00000
 BRILLOUIN|   485           0.00195       -0.01562       -0.35938        0.00000
 BRILLOUIN|   486           0.00195       -0.01562       -0.32812        0.00000
 BRILLOUIN|   487           0.00195       -0.01562       -0.29688        0.00000
 BRILLOUIN|   488           0.00195       -0.01562       -0.26562        0.00000
 BRILLOUIN|   489           0.00195       -0.01562       -0.23438        0.00000
 BRILLOUIN|   490           0.00195       -0.01562       -0.20312        0.00000
 BRILLOUIN|   491           0.00195       -0.01562       -0.17188        0.00000
 BRILLOUIN|   492           0.00195       -0.01562       -0.14062        0.00000
 BRILLOUIN|   493           0.00195       -0.01562       -0.10938        0.00000
 BRILLOUIN|   494           0.00195       -0.01562       -0.07812        0.00000
 BRILLOUIN|   495           0.00195       -0.01562       -0.04688        0.00000
 BRILLOUIN|   496           0.00195       -0.01562       -0.01562        0.00000
 BRILLOUIN|   497           0.00195       -0.01562        0.01562        0.00000
 BRILLOUIN|   498           0.00195       -0.01562        0.04688        0.00000
 BRILLOUIN|   499           0.00195       -0.01562        0.07812        0.00000
 BRILLOUIN|   500           0.00195       -0.01562        0.10938        0.00000
 BRILLOUIN|   501           0.00195       -0.01562        0.14062        0.00000
 BRILLOUIN|   502           0.00195       -0.01562        0.17188        0.00000
 BRILLOUIN|   503           0.00195       -0.01562        0.20312        0.00000
 BRILLOUIN|   504           0.00195       -0.01562        0.23438        0.00000
 BRILLOUIN|   505           0.00195       -0.01562        0.26562        0.00000
 BRILLOUIN|   506           0.00195       -0.01562        0.29688        0.00000
 BRILLOUIN|   507           0.00195       -0.01562        0.32812        0.00000
 BRILLOUIN|   508           0.00195       -0.01562        0.35938        0.00000
 BRILLOUIN|   509           0.00195       -0.01562        0.39062        0.00000
 BRILLOUIN|   510           0.00195       -0.01562        0.42188        0.00000
 BRILLOUIN|   511           0.00195       -0.01562        0.45312        0.00000
 BRILLOUIN|   512           0.00195       -0.01562        0.48438        0.00000
 *******************************************************************************

 *******************************************************************************
 *******************************************************************************
 **                                                                           **
 **     #####                         ##              ##                      **
 **    ##   ##            ##          ##              ##                      **
 **   ##     ##                       ##            ######                    **
 **   ##     ##  ##   ##  ##   #####  ##  ##   ####   ##    #####    #####    **
 **   ##     ##  ##   ##  ##  ##      ## ##   ##      ##   ##   ##  ##   ##   **
 **   ##  ## ##  ##   ##  ##  ##      ####     ###    ##   ######   ######    **
 **    ##  ###   ##   ##  ##  ##      ## ##      ##   ##   ##       ##        **
 **     #######   #####   ##   #####  ##  ##  ####    ##    #####   ##        **
 **           ##                                                    ##        **
 **                                                                           **
 **                                                ... make the atoms dance   **
 **                                                                           **
 **            Copyright (C) by CP2K developers group (2000-2025)             **
 **                      J. Chem. Phys. 152, 194103 (2020)                    **
 **                                                                           **
 *******************************************************************************

 DFT| Spin restricted Kohn-Sham (RKS) calculation                            RKS
 DFT| Multiplicity                                                             1
 DFT| Number of spin states                                                    1
 DFT| Charge                                                                   0
 DFT| Self-interaction correction (SIC)                                       NO
 DFT| Cutoffs: density                                              1.000000E-10
 DFT|          gradient                                             1.000000E-10
 DFT|          tau                                                  1.000000E-10
 DFT|          cutoff_smoothing_range                               0.000000E+00
 DFT| XC density smoothing                                                  NONE
 DFT| XC derivatives                                                          PW

 FUNCTIONAL| PBE:
 FUNCTIONAL| J.P.Perdew, K.Burke, M.Ernzerhof, Phys. Rev. Letter, vol. 77, n 18,
 FUNCTIONAL|  pp. 3865-3868, (1996) {spin unpolarized}                          


 QS| Method:                                                                GAPW
 QS| Density plane wave grid type                        NON-SPHERICAL FULLSPACE
 QS| Number of grid levels:                                                    4
 QS| Density cutoff [a.u.]:                                                250.0
 QS| Multi grid cutoff [a.u.]: 1) grid level                               250.0
 QS|                           2) grid level                                83.3
 QS|                           3) grid level                                27.8
 QS|                           4) grid level                                 9.3
 QS| Grid level progression factor:                                          3.0
 QS| Relative density cutoff [a.u.]:                                        50.0
 QS| Interaction thresholds: eps_pgf_orb:                                1.0E-12
 QS|                         eps_filter_matrix:                          0.0E+00
 QS|                         eps_core_charge:                            1.0E-14
 QS|                         eps_rho_gspace:                             1.0E-12
 QS|                         eps_rho_rspace:                             1.0E-12
 QS|                         eps_gvg_rspace:                             1.0E-06
 QS|                         eps_ppl:                                    1.0E-02
 QS|                         eps_ppnl:                                   1.0E-08
 QS| GAPW|      One center basis from orbital basis primitives
 QS| GAPW|                   eps_fit:                                    1.0E-04
 QS| GAPW|                   eps_iso:                                    1.0E-12
 QS| GAPW|                   eps_svd:                                    1.0E-08
 QS| GAPW|                   eps_cpc:                                    1.0E-12
 QS| GAPW|   atom-r-grid: quadrature:                                     GC_LOG
 QS| GAPW|      atom-s-grid:  max l :                                          6
 QS| GAPW|      max_l_rho0 :                                                   2
 QS| GAPW|      At least one kind is NOT PAW, i.e. it has only soft AO 
 QS| GAPW|      The NOT PAW atoms are treated fully GPW


 ATOMIC KIND INFORMATION

  1. Atomic kind: Mo                                    Number of atoms:       1

     Orbital Basis Set                                   TZVP-MOLOPT-PBE-GTH-q14

       Number of orbital shell sets:                                           1
       Number of orbital shells:                                              11
       Number of primitive Cartesian functions:                                6
       Number of Cartesian basis functions:                                   41
       Number of spherical basis functions:                                   35
       Norm type:                                                              2

       Normalised Cartesian orbitals:

                        Set   Shell   Orbital            Exponent    Coefficient

                          1       1    2s                2.544684      -0.188075
                                                         2.316245       0.296669
                                                         1.083413       0.433312
                                                         0.493050       0.017917
                                                         0.171157       0.067610
                                                         0.057249       0.008222

                          1       2    3s                2.544684      -0.583575
                                                         2.316245       0.348793
                                                         1.083413       0.149394
                                                         0.493050       0.143576
                                                         0.171157      -0.084316
                                                         0.057249      -0.067836

                          1       3    4s                2.544684       0.985904
                                                         2.316245       0.700484
                                                         1.083413      -0.090132
                                                         0.493050      -0.181791
                                                         0.171157       0.061855
                                                         0.057249      -0.047132

                          1       4    5s                2.544684      -0.066344
                                                         2.316245       1.552419
                                                         1.083413       0.023292
                                                         0.493050      -0.162246
                                                         0.171157      -0.180470
                                                         0.057249       0.063372

                          1       5    3px               2.544684       2.385025
                                                         2.316245      -1.995598
                                                         1.083413      -0.348630
                                                         0.493050      -0.168348
                                                         0.171157      -0.074762
                                                         0.057249      -0.009095
                          1       5    3py               2.544684       2.385025
                                                         2.316245      -1.995598
                                                         1.083413      -0.348630
                                                         0.493050      -0.168348
                                                         0.171157      -0.074762
                                                         0.057249      -0.009095
                          1       5    3pz               2.544684       2.385025
                                                         2.316245      -1.995598
                                                         1.083413      -0.348630
                                                         0.493050      -0.168348
                                                         0.171157      -0.074762
                                                         0.057249      -0.009095

                          1       6    4px               2.544684       1.680915
                                                         2.316245      -1.701974
                                                         1.083413      -0.295783
                                                         0.493050      -0.016655
                                                         0.171157       0.117406
                                                         0.057249       0.015577
                          1       6    4py               2.544684       1.680915
                                                         2.316245      -1.701974
                                                         1.083413      -0.295783
                                                         0.493050      -0.016655
                                                         0.171157       0.117406
                                                         0.057249       0.015577
                          1       6    4pz               2.544684       1.680915
                                                         2.316245      -1.701974
                                                         1.083413      -0.295783
                                                         0.493050      -0.016655
                                                         0.171157       0.117406
                                                         0.057249       0.015577

                          1       7    5px               2.544684      -0.173273
                                                         2.316245       0.509264
                                                         1.083413       0.129743
                                                         0.493050      -0.243268
                                                         0.171157      -0.086849
                                                         0.057249       0.049506
                          1       7    5py               2.544684      -0.173273
                                                         2.316245       0.509264
                                                         1.083413       0.129743
                                                         0.493050      -0.243268
                                                         0.171157      -0.086849
                                                         0.057249       0.049506
                          1       7    5pz               2.544684      -0.173273
                                                         2.316245       0.509264
                                                         1.083413       0.129743
                                                         0.493050      -0.243268
                                                         0.171157      -0.086849
                                                         0.057249       0.049506

                          1       8    4dx2              2.544684     -22.567275
                                                         2.316245       8.400806
                                                         1.083413       2.941227
                                                         0.493050      -0.248714
                                                         0.171157       0.016061
                                                         0.057249      -0.000063
                          1       8    4dxy              2.544684     -39.087666
                                                         2.316245      14.550622
                                                         1.083413       5.094354
                                                         0.493050      -0.430786
                                                         0.171157       0.027818
                                                         0.057249      -0.000108
                          1       8    4dxz              2.544684     -39.087666
                                                         2.316245      14.550622
                                                         1.083413       5.094354
                                                         0.493050      -0.430786
                                                         0.171157       0.027818
                                                         0.057249      -0.000108
                          1       8    4dy2              2.544684     -22.567275
                                                         2.316245       8.400806
                                                         1.083413       2.941227
                                                         0.493050      -0.248714
                                                         0.171157       0.016061
                                                         0.057249      -0.000063
                          1       8    4dyz              2.544684     -39.087666
                                                         2.316245      14.550622
                                                         1.083413       5.094354
                                                         0.493050      -0.430786
                                                         0.171157       0.027818
                                                         0.057249      -0.000108
                          1       8    4dz2              2.544684     -22.567275
                                                         2.316245       8.400806
                                                         1.083413       2.941227
                                                         0.493050      -0.248714
                                                         0.171157       0.016061
                                                         0.057249      -0.000063

                          1       9    5dx2              2.544684       0.273804
                                                         2.316245       3.109207
                                                         1.083413      -0.209533
                                                         0.493050       0.289178
                                                         0.171157       0.022622
                                                         0.057249       0.000731
                          1       9    5dxy              2.544684       0.474242
                                                         2.316245       5.385305
                                                         1.083413      -0.362922
                                                         0.493050       0.500872
                                                         0.171157       0.039182
                                                         0.057249       0.001265
                          1       9    5dxz              2.544684       0.474242
                                                         2.316245       5.385305
                                                         1.083413      -0.362922
                                                         0.493050       0.500872
                                                         0.171157       0.039182
                                                         0.057249       0.001265
                          1       9    5dy2              2.544684       0.273804
                                                         2.316245       3.109207
                                                         1.083413      -0.209533
                                                         0.493050       0.289178
                                                         0.171157       0.022622
                                                         0.057249       0.000731
                          1       9    5dyz              2.544684       0.474242
                                                         2.316245       5.385305
                                                         1.083413      -0.362922
                                                         0.493050       0.500872
                                                         0.171157       0.039182
                                                         0.057249       0.001265
                          1       9    5dz2              2.544684       0.273804
                                                         2.316245       3.109207
                                                         1.083413      -0.209533
                                                         0.493050       0.289178
                                                         0.171157       0.022622
                                                         0.057249       0.000731

                          1      10    6dx2              2.544684       0.069770
                                                         2.316245      -0.861163
                                                         1.083413      -0.093134
                                                         0.493050      -0.121334
                                                         0.171157       0.038877
                                                         0.057249       0.007315
                          1      10    6dxy              2.544684       0.120846
                                                         2.316245      -1.491577
                                                         1.083413      -0.161313
                                                         0.493050      -0.210157
                                                         0.171157       0.067337
                                                         0.057249       0.012670
                          1      10    6dxz              2.544684       0.120846
                                                         2.316245      -1.491577
                                                         1.083413      -0.161313
                                                         0.493050      -0.210157
                                                         0.171157       0.067337
                                                         0.057249       0.012670
                          1      10    6dy2              2.544684       0.069770
                                                         2.316245      -0.861163
                                                         1.083413      -0.093134
                                                         0.493050      -0.121334
                                                         0.171157       0.038877
                                                         0.057249       0.007315
                          1      10    6dyz              2.544684       0.120846
                                                         2.316245      -1.491577
                                                         1.083413      -0.161313
                                                         0.493050      -0.210157
                                                         0.171157       0.067337
                                                         0.057249       0.012670
                          1      10    6dz2              2.544684       0.069770
                                                         2.316245      -0.861163
                                                         1.083413      -0.093134
                                                         0.493050      -0.121334
                                                         0.171157       0.038877
                                                         0.057249       0.007315

                          1      11    5fx3              2.544684       0.050018
                                                         2.316245      -0.051094
                                                         1.083413      -0.302285
                                                         0.493050      -0.146467
                                                         0.171157      -0.013670
                                                         0.057249      -0.000239
                          1      11    5fx2y             2.544684       0.111843
                                                         2.316245      -0.114249
                                                         1.083413      -0.675930
                                                         0.493050      -0.327511
                                                         0.171157      -0.030567
                                                         0.057249      -0.000535
                          1      11    5fx2z             2.544684       0.111843
                                                         2.316245      -0.114249
                                                         1.083413      -0.675930
                                                         0.493050      -0.327511
                                                         0.171157      -0.030567
                                                         0.057249      -0.000535
                          1      11    5fxy2             2.544684       0.111843
                                                         2.316245      -0.114249
                                                         1.083413      -0.675930
                                                         0.493050      -0.327511
                                                         0.171157      -0.030567
                                                         0.057249      -0.000535
                          1      11    5fxyz             2.544684       0.193717
                                                         2.316245      -0.197885
                                                         1.083413      -1.170745
                                                         0.493050      -0.567265
                                                         0.171157      -0.052944
                                                         0.057249      -0.000927
                          1      11    5fxz2             2.544684       0.111843
                                                         2.316245      -0.114249
                                                         1.083413      -0.675930
                                                         0.493050      -0.327511
                                                         0.171157      -0.030567
                                                         0.057249      -0.000535
                          1      11    5fy3              2.544684       0.050018
                                                         2.316245      -0.051094
                                                         1.083413      -0.302285
                                                         0.493050      -0.146467
                                                         0.171157      -0.013670
                                                         0.057249      -0.000239
                          1      11    5fy2z             2.544684       0.111843
                                                         2.316245      -0.114249
                                                         1.083413      -0.675930
                                                         0.493050      -0.327511
                                                         0.171157      -0.030567
                                                         0.057249      -0.000535
                          1      11    5fyz2             2.544684       0.111843
                                                         2.316245      -0.114249
                                                         1.083413      -0.675930
                                                         0.493050      -0.327511
                                                         0.171157      -0.030567
                                                         0.057249      -0.000535
                          1      11    5fz3              2.544684       0.050018
                                                         2.316245      -0.051094
                                                         1.083413      -0.302285
                                                         0.493050      -0.146467
                                                         0.171157      -0.013670
                                                         0.057249      -0.000239

     RI Auxiliary Basis Set                                                   RI

       Number of orbital shell sets:                                          17
       Number of orbital shells:                                              17
       Number of primitive Cartesian functions:                               17
       Number of Cartesian basis functions:                                   91
       Number of spherical basis functions:                                   69
       Norm type:                                                              2

       Normalised Cartesian orbitals:

                        Set   Shell   Orbital            Exponent    Coefficient

                          1       1    1s                0.210000       0.221093

                          2       1    1px               0.210000       0.202635
                          2       1    1py               0.210000       0.202635
                          2       1    1pz               0.210000       0.202635

                          3       1    1dx2              0.346956       0.258160
                          3       1    1dxy              0.346956       0.447147
                          3       1    1dxz              0.346956       0.447147
                          3       1    1dy2              0.346956       0.258160
                          3       1    1dyz              0.346956       0.447147
                          3       1    1dz2              0.346956       0.258160

[...]
 https://doi.org/10.1016/j.parco.2014.03.012

 J. VandeVondele, J. Hutter.
 J. Chem. Phys. 127, 114105 (2007).
 Gaussian basis sets for accurate calculations on molecular systems in gas and 
 condensed phases.
 https://doi.org/10.1063/1.2770708

 M. Krack.
 Theor. Chem. Acc. 114, 145-152 (2005).
 Pseudopotentials for H to Kr optimized for gradient-corrected 
 exchange-correlation functionals.
 https://doi.org/10.1007/s00214-005-0655-y

 M. Frigo, S. G. Johnson.
 Proc. IEEE 93, 216-231 (2005).
 The design and implementation of FFTW3.
 https://doi.org/10.1109/JPROC.2004.840301

 M. Krack, M. Parrinello.
 Phys. Chem. Chem. Phys. 2, 2105-2112 (2000).
 All-electron ab-initio molecular dynamics.
 https://doi.org/10.1039/b001167n

 G. Lippert, J. Hutter, M. Parrinello.
 Theor. Chem. Acc. 103, 124-140 (1999).
 The Gaussian and augmented-plane-wave density functional method for ab initio 
 molecular dynamics simulations.
 https://doi.org/10.1007/s002140050523

 C. Hartwigsen, S. Goedecker, J. Hutter.
 Phys. Rev. B 58, 3641-3662 (1998).
 Relativistic separable dual-space Gaussian pseudopotentials from H to Rn.
 https://doi.org/10.1103/PhysRevB.58.3641

 S. Goedecker, M. Teter, J. Hutter.
 Phys. Rev. B 54, 1703-1710 (1996).
 Separable dual-space Gaussian pseudopotentials.
 https://doi.org/10.1103/PhysRevB.54.1703

 J. P. Perdew, K. Burke, M. Ernzerhof.
 Phys. Rev. Lett. 77, 3865-3868 (1996).
 Generalized gradient approximation made simple.
 https://doi.org/10.1103/PhysRevLett.77.3865


 -------------------------------------------------------------------------------
 -                                                                             -
 -                                T I M I N G                                  -
 -                                                                             -
 -------------------------------------------------------------------------------
 SUBROUTINE                       CALLS  ASD         SELF TIME        TOTAL TIME
                                MAXIMUM       AVERAGE  MAXIMUM  AVERAGE  MAXIMUM
 CP2K                                 1  1.0     0.01     0.02 43685.13 43685.13
 qs_energies                          1  2.0     0.00     0.00 43684.13 43684.15
 qs_energies_properties               1  3.0     0.00     0.00 43068.62 43068.64
 post_scf_bandstructure               1  4.0     0.00     0.00 43068.62 43068.64
 gw                                   1  5.0     0.00     0.00 42939.92 42939.92
 gw_calc_small_cell_full_kp           1  6.0     0.00     0.00 42410.87 42410.88
 dbt_total                      *******  9.8   104.84   114.29 28130.55 30209.65
 dbt_contract                   ******* 10.6   174.48   190.60 22137.96 23581.50
 dbt_tas_multiply               7546430 13.0    19.27    22.30 20404.38 21900.03
 dbt_tas_total                  7546430 14.0   880.16   982.20 20392.12 21887.20
 compute_Sigma_c                      1  7.0     0.01     0.01 19131.69 19131.73
 compute_chi                          1  7.0     0.15     0.17 12631.01 12631.16
 contract_to_Sigma                  488  8.0   132.78   154.10 10888.00 12254.21
 dbt_tas_dbm                    7546430 15.0    17.50    19.94  9650.15 10448.40
 dbm_multiply                   7546430 17.0  9610.11 10404.39  9610.11 10404.39
 compute_W_real_space                 1  7.0    23.59    24.49  9938.79  9938.94
 compute_Minv_and_Vsqrt               1  8.0     0.26     0.27  8819.18  8819.51
 build_2c_coulomb_matrix_kp_sma       2  9.0    10.48    11.22  8801.49  8801.56
 build_2c_coulomb_matrix_kp_sma  655360 10.0  7454.26  7838.67  7454.26  7838.67
 contract_W                         248  8.0    19.49    20.51  7001.16  7569.79
 dbt_copy                       ******* 11.1    97.20   109.67  6915.94  7458.75
 contract_M_occ_vir_to_chi          240  8.0   226.23   273.82  5447.66  6873.35
 contract_to_Sigma_3c_x_G       5663728  9.0    14.95    16.26  6024.03  6752.33
 G_times_3c                       26160  8.0    24.02    25.46  5482.58  5882.75
 dbt_reshape                    9433017 12.0  3994.72  4462.16  5123.36  5738.64
 dbt_tas_estimate_result_nze    3773215 13.5  1632.74  1759.03  4879.95  5499.65
 contract_to_Sigma_contract       26596  9.0    26.81    29.45  4690.16  5429.84
 mp_sync                        ******* 12.0  3404.09  5306.54  3404.09  5306.54
 dbt_tas_mm_2                   2648828 16.1     7.68     9.87  4255.39  5001.43
 get_t_3c_int                   9035604  9.6    92.30   119.62  3466.37  3874.62
 dbt_tas_mm_3T                  3169588 16.2     5.29     6.46  3385.96  3668.03
 dbt_tas_reshape                8435234 15.5   116.68   137.73  2443.64  2606.69
 dbt_tas_mm_1N                  2019502 15.5     3.12     3.72  1987.09  2129.40
 convert_to_new_pgrid           ******* 15.0   145.65   164.33  1708.71  1854.77
 reshape_mm_small               7546430 15.0   714.28   756.70  1715.14  1832.99
 dbm_copy                       ******* 16.0  1563.06  1695.91  1563.06  1695.91
 dbm_reserve_blocks             ******* 16.6  1286.64  1445.70  1286.64  1445.70
 dbt_tas_reserve_blocks_index   ******* 15.7    46.10    49.88  1273.36  1404.72
 dbt_remap                       499592 11.0    78.84    85.19  1229.07  1333.81
 dbt_tas_reshape_buffer_fill    8435234 16.5  1187.17  1280.32  1187.17  1280.32
 dbt_tas_copy                   6083268 12.6   650.14   776.95   930.38  1133.68
 dbt_tas_create_split           ******* 16.0    28.66    31.64   833.37   937.65
 dbt_reserve_blocks_index_array ******* 13.0    17.66    20.62   815.50   936.99
 dbt_reserve_blocks_index       ******* 13.9    22.59    26.12   815.48   934.40
 dbt_tas_create_split_rows_or_c ******* 17.0   111.15   121.84   804.71   907.96
 dbt_copy_nocomm                1947450 11.0   484.99   655.22   668.40   900.79
 dbt_tas_reshape_buffer_obtain  8435234 16.5   646.72   716.21   805.65   872.13
 reshape_mm_compatible          7546430 15.0   148.86   158.94   798.29   869.08
 dbt_tas_replicate              7546430 15.0   391.68   420.64   665.41   723.80
 dbcsr_complete_redistribute     484492  9.6    16.96    22.85   627.04   683.56
 dbt_tas_distribution_new       ******* 15.8   305.94   343.78   570.82   644.90
 scf_env_do_scf                       1  3.0     0.00     0.00   615.26   615.26
 scf_env_do_scf_inner_loop           66  4.0     0.01     0.02   615.26   615.26
 copy_dbcsr_to_fm                270625  8.1     2.90     3.12   597.81   602.91
 qs_scf_new_mos_kp                   66  5.0     0.00     0.00   600.24   600.32
 do_general_diag_kp                  66  6.0     0.70     0.80   600.24   600.32
 mp_sum_dm                       655425 10.0   591.25   595.72   591.25   595.72
 change_split                   ******* 15.5    53.54    57.78   525.71   582.51
 compute_Sigma_x                      1  7.0     0.00     0.00   578.75   578.79
 dbt_communicate_buffer         9433017 13.0   471.38   531.89   471.38   531.89
 create_and_init_bs_env_for_gw        1  6.0     0.00     0.00   529.05   529.06
 G_occ_vir                          121  8.0     0.55     0.70   521.27   524.19
 mp_cart_create                 ******* 16.7   421.15   481.56   454.67   522.29
 compute_3c_integrals                 1  7.0     0.11     0.12   481.52   481.52
 build_3c_integrals                   1  8.0   423.55   461.20   442.88   480.61
 add_V_L                         327680 10.0    14.39   462.88    14.39   462.88
 dbt_tas_reserve_blocks_templat ******* 14.1    73.67    85.07   399.60   462.60
 dbm_add                        7546430 15.0   419.86   453.10   419.86   453.10
 fm_to_local_tensor              146072  9.0     3.53     4.46   450.55   450.61
 dbcsr_desymmetrize_deep         419857  8.4     6.84     8.07   427.80   438.23
 add_rs_to_ikp                  *******  9.9   389.01   405.78   389.01   405.78
 trafo_rs_to_ikp                  10736  8.1     7.84     8.31   361.42   371.92
 add_ikp_to_rs                  *******  9.9   318.69   365.20   318.69   365.20
 copy_fm_to_dbcsr                213867  9.4     0.97     1.11   303.41   360.31
 mp_alltoall_d11v               2713047 10.5   332.98   335.13   332.98   335.13
 mp_alltoall_i11v               1873333 10.4   311.64   311.85   311.64   311.85
 dbt_tas_communicate_buffer     ******* 17.3   279.72   307.79   279.72   307.79
 mp_alltoall_i22                 904349 10.0   241.89   297.50   241.89   297.50
 add_ikp_to_all_rs                 9848  8.0     6.68     6.92   282.81   293.41
 dbt_tas_reshape_communicate_bu 8435234 16.5    12.87    14.80   264.03   291.43
 dbt_permute_index              ******* 12.2   219.66   242.32   247.02   275.38
 mp_comm_dup                    ******* 18.6   222.79   252.70   237.96   271.71
 dbt_tas_create_new             ******* 15.3   238.12   259.57   238.12   259.57
 fm_to_local_array                  934  8.1    77.41    81.12   251.14   252.16
 local_dbt_to_global_fm              91  8.0     0.31     0.35   248.99   248.99
 dbt_reserve_blocks_template    1947450 12.0     8.60    11.77   183.41   245.57
 dbt_tas_merge                  2648828 15.1   134.36   181.24   175.87   238.89
 global_matrix_to_local_matrix   146072 10.0     2.89     6.36   169.02   227.83
 mp_comm_split_direct           ******* 18.0   179.84   200.96   190.14   214.26
 dbt_align_index                ******* 11.5    30.34    33.25   195.93   211.09
 mp_waitall_1                   1441638 11.1   132.25   181.18   132.25   181.18
 mp_sum_dm3                        1061  9.0   176.55   178.62   176.55   178.62
 send_data                       146072 11.0     0.18     0.26   133.06   178.06
 communicate_buffer              146072 12.0     2.83    24.99   132.88   177.88
 mp_comm_free                   ******* 15.7   159.38   173.77   159.38   173.77
 dbt_tas_mp_comm                4217617 13.2    18.91    21.06   147.84   171.10
 fm_add_ikp_to_rs                123904  9.0    77.29    79.08   119.89   165.32
 dbm_filter                     ******* 14.9   126.00   162.88   126.00   162.88
 hybrid_alltoall_any             419857  9.4     1.98     2.15   154.98   155.92
 cp_cfm_gemm                     284468 10.9   118.69   137.63   118.69   137.63
 parallel_gemm_cfm               280952  8.9     0.27     0.31   118.32   137.27
 add_R                          *******  9.3    92.91   100.81   126.47   137.07
 parallel_gemm_cfm_gemm          280952  9.9     0.27     0.31   118.05   137.01
 power                            20408  8.0    13.12    13.36   131.50   133.34
 compute_QP_energies                  1  7.0     0.08     0.11   130.63   130.67
 trafo_to_k_and_nn                71492  8.0     0.56     0.65   130.35   130.38
 diag_complex                     20408  9.0   118.38   120.03   118.38   120.03
 kpoint_density_transform            66  7.0     0.21     0.26   116.11   116.17
 dbt_destroy                    ******* 11.2    99.10   108.38   105.61   115.17
 fm_MWM_R_t_to_local_tensor_W_R      30  8.0     0.04     0.05   114.80   114.81
 reshape_mm_template             999184 15.5    55.49    61.05    99.73   110.24
 mult_W_with_Minv                    30  8.0     1.28     1.39   108.55   108.60
 dbt_distribution_new_expert    1291338 12.3    17.73    19.93    89.26   100.22
 dbm_scale                      ******* 13.3    64.32    93.75    64.32    93.75
 fm_trafo_rs_to_ikp               71492  9.0    46.67    48.23    82.09    90.49
 mp_cart_get                    ******* ****    79.66    89.05    79.66    89.05
 get_V_tr_R                          34  9.0     0.16     0.21    86.89    87.04
 get_data                        146072 11.0     6.59    78.71     7.00    79.29
 cp_cfm_heevd                      4952  7.5     0.01     0.01    78.22    78.34
 cp_cfm_heevd_base                 4952  8.5    78.21    78.33    78.21    78.33
 dbcsr_finalize                 1884895 11.0    12.30    16.09    55.52    72.73
 mp_comm_size                   ******* -7.4    57.76    69.95    57.76    69.95
 rskp_transform                   74616  7.1     1.46    65.93     1.46    65.93
 mp_isend_dv                    ******* 12.1     2.39    62.43     2.39    62.43
 local_dbt_to_global_mat          87451  9.0     1.06     1.41    39.44    60.64
 is_cell_in_index_to_cell       *******  9.8    57.29    60.40    57.29    60.40
 dos_pdos_ldos                        1  5.0     0.01     0.01    58.23    58.26
 mp_cart_sub                     541329 10.1    57.80    57.98    57.80    57.98
 cp_fm_start_copy_general        202752  7.3     1.89     3.41    54.81    55.45
 SOC_ev                            2344  6.0     0.03     0.03    54.93    54.98
 mp_comm_rank                   ******* -7.4    44.91    54.56    44.91    54.56
 dbt_create_new                  645669 11.8    11.18    15.98    48.60    54.31
 local_matrix_to_global_matrix    87451 10.0     0.36     0.40    32.05    52.73
 dbt_tas_reshape_get_coord      8435234 16.5    46.05    52.43    46.05    52.43
 rsmat_to_kp                       7032  7.2     0.11     0.12    47.76    48.04
 create_and_init_bs_env               1  5.0     0.00     0.00    45.91    45.91
 compute_cfm_mo_coeff_kp_and_ei       1  6.0     0.01     0.01    45.90    45.90
 dbcsr_filter_anytype            660773 11.0     4.55     5.09    31.81    44.80
 mp_allgather_i                  405504  8.3    42.84    43.76    42.84    43.76
 dbt_create_3c_R1_R2                 62  8.0     6.29     6.77    38.68    41.39
 mp_alltoall_i                  ******* 15.1    35.77    40.29    35.77    40.29
 dbcsr_merge_all                 709734 11.8    20.02    27.91    27.74    37.22
 dbt_create_template            3542925  9.0    34.37    36.86    34.37    36.86
 mp_sum_l                       ******* 15.2    29.97    34.07    29.97    34.07
 dbt_tas_replicate_communicate_ 5189090 15.9     7.56     9.14    29.76    32.05
 cp_cfm_geeig_canon                1172  7.0     0.01     0.02    29.41    29.45
 dbt_create_matrix               146072 10.0     1.83     1.97    26.93    29.36
 transform_dmat                   33792  8.0     0.63    28.59     0.63    28.59
 soc                                  1  5.0     0.00     0.00    24.56    24.56
 H_KS_spinor_kp                       1  6.0     0.02     0.02    24.50    24.51
 set_blocks                       87451 11.0     1.89    11.24     9.61    24.18
 destroy_t_2d                        62  8.0     5.49     7.52    22.24    24.05
 dbt_pgrid_create_expert        1291341 13.3     3.79     4.54    20.94    23.79
 dbt_tas_reshape_alltoall       8435234 16.5    10.67    12.97    17.57    21.03
 dbt_nd_mp_comm                  645664 11.8     2.75     3.19    16.08    18.16
 comm_data                        87451 11.0     0.42     2.58    12.84    18.01
 mp_waitall_2                    174902 12.0    12.02    17.34    12.02    17.34
 setup_cells_3c                       1  7.0     0.69     0.69    16.83    16.83
 build_3c_integral_block          14607  8.0     9.86    11.47    14.88    16.14
 alloc_block_3c                       1  9.0     0.46     0.48    15.72    16.05
 mp_max_i                       ******* 11.6    13.72    16.01    13.72    16.01
 heuristic_RI_regularization          1  7.0     0.00     0.00    15.70    15.70
 mp_isend_im2                   ******* 12.9     0.77    15.53     0.77    15.53
 dbt_distribution_destroy       1291338 12.3     9.58    11.75    11.78    14.25
 dbt_tas_merge_communicate_buff 2648828 16.1     4.38     5.61    10.74    14.23
 dbcsr_work_create              1129591 10.4     8.19     9.57    12.04    14.13
 dbcsr_iterator_start           4052467 10.9    12.01    12.57    13.22    13.78
 mp_sum_i                       6803704 15.9    11.73    13.33    11.73    13.33
 mp_bcast_i                     ******* 18.0    10.69    12.57    10.69    12.57
 dbcsr_work_destroy_all         1129591 11.2     7.14     8.56    10.30    12.12
 get_Minv_Vtr_Minv_R                  1  8.0     0.05     0.05    11.30    11.36
 mp_dims_create                 ******* 14.4     9.27    11.15     9.27    11.15
 mp_cart_rank                   ******* 15.9     9.49    10.97     9.49    10.97
 dbt_tas_replicate_alltoall     5189090 15.9     6.12     7.10     9.32    10.53
 copy_fm_to_dbcsr_bc             213867 10.4     3.13     3.35     9.81    10.43
 dbt_copy_matrix_to_tensor       146072 10.0     3.72     4.29     9.26    10.33
 dbcsr_create_new               1591883  9.9     7.94     8.51     9.42    10.08
 dbt_tas_merge_alltoall         2648828 16.1     4.72     6.13     7.57     9.73
 dbt_buffer_get_index           ******* 16.8     8.33     9.61     8.33     9.61
 send_sizes_1                    146072 11.0     0.18     0.20     8.01     9.29
 trafo_V_xc_R_to_kp                   1  7.0     0.01     0.01     8.89     8.97
 dbcsr_iterator_stop            4052467 10.9     6.83     7.14     7.86     8.16
 reserve_blocks                  146072 11.0     0.74     0.85     7.05     8.09
 dbcsr_data_release             ******* 12.0     6.92     8.08     6.92     8.08
 mp_bcast_iv                     811053  8.3     7.12     8.06     7.12     8.06
 send_sizes_2                    146072 11.0     0.19     0.21     7.22     7.46
 qs_ks_update_qs_env                 66  5.0     0.00     0.00     7.07     7.14
 dbcsr_data_new                 ******* 11.4     5.92     6.94     5.92     6.94
 qs_ks_build_kohn_sham_matrix        69  7.0     0.03     0.03     6.84     6.92
 rebuild_ks_matrix                   66  6.0     0.00     0.00     6.54     6.62
 build_2c_integrals                  34 10.0     0.16     4.09     0.34     6.47
 fill_buffer                      87451 11.0     2.56     6.06     2.80     6.31
 copy_dbcsr_to_fm_bc             270625  9.1     2.58     2.85     5.73     6.00
 mp_sum_dv                        78727  8.9     3.44     5.99     3.44     5.99
 transfer_pw2rs                     346 10.6     0.00     0.00     5.78     5.98
 transfer_pw2rs_250                 139 11.0     0.23     0.28     5.54     5.74
 sum_up_and_integrate                69  8.0     0.00     0.00     0.82     5.72
 integrate_v_rspace                  69  9.0     0.00     0.05     0.82     5.72
 integrate_vhg0_rspace               69  8.0     0.00     0.00     5.22     5.41
 transfer_rs2pw                     339  8.4     0.00     0.00     5.10     5.24
 qs_rho_update_rho_low               67  5.0     0.00     0.00     5.13     5.14
 abc_contract_xsmm                53752  9.0     4.62     5.13     4.62     5.13
 calculate_rho_elec                  67  6.0     0.00     0.01     5.12     5.13
 transfer_rs2pw_250                 138 10.0     0.28     0.32     4.86     5.03
 grid_integrate_task_list            69 10.0     0.13     5.01     0.13     5.01
 tree_to_linear_d                541965 12.6     4.54     4.97     4.54     4.97
 density_rs2pw                       67  7.0     0.00     0.00     4.79     4.93
 mp_sendrecv_dv                   43053 10.4     4.75     4.89     4.75     4.89
 comm_size                        87451 11.0     0.13     0.16     4.57     4.75
 dbcsr_reserve_blocks            584929 12.2     2.47     3.95     2.94     4.66
 dbcsr_destroy                  1475314  9.6     2.57     2.65     4.34     4.65
 dbt_reserve_blocks_matrix_to_t  146072 11.0     1.22     1.32     3.99     4.56
 grid_collocate_task_list            67  7.0     0.33     4.37     0.33     4.37
 -------------------------------------------------------------------------------

 The number of warnings for this run is : 2
 
 -------------------------------------------------------------------------------
  **** **** ******  **  PROGRAM ENDED AT                 2025-02-28 19:52:35.809
 ***** ** ***  *** **   PROGRAM RAN ON                              f01r02c01s01
 **    ****   ******    PROGRAM RAN BY                                   di38fab
 ***** **    ** ** **   PROGRAM PROCESS ID                                 30135
  **** **  *******  **  PROGRAM STOPPED IN /hppfs/scratch/04/di38fab/04_TMD/1_Mo
                                           S2_/TZVPnonaug
