 DBCSR| CPU Multiplication driver                                           XSMM (U)
 DBCSR| Multrec recursion limit                                              512 (U)
 DBCSR| Multiplication stack size                                           1000 (D)
 DBCSR| Maximum elements for images                                    UNLIMITED (U)
 DBCSR| Multiplicative factor virtual images                                   1 (U)
 DBCSR| Use multiplication densification                                       T (D)
 DBCSR| Multiplication size stacks                                             3 (U)
 DBCSR| Use memory pool for CPU allocation                                     F (U)
 DBCSR| Number of 3D layers                                               SINGLE (U)
 DBCSR| Use MPI memory allocation                                              F (U)
 DBCSR| Use RMA algorithm                                                      F (U)
 DBCSR| Use Communication thread                                               T (U)
 DBCSR| Communication thread load                                             60 (D)
 DBCSR| MPI: My process id                                                     0
 DBCSR| MPI: Number of processes                                             256
 DBCSR| OMP: Current number of threads                                         8
 DBCSR| OMP: Max number of threads                                             8
 DBCSR| Split modifier for TAS multiplication algorithm                  1.0E+00 (U)


  **** **** ******  **  PROGRAM STARTED AT               2025-07-18 17:04:26.783
 ***** ** ***  *** **   PROGRAM STARTED ON                              n2cn0607
 **    ****   ******    PROGRAM STARTED BY                              metdyn02
 ***** **    ** ** **   PROGRAM PROCESS ID                                555155
  **** **  *******  **  PROGRAM STARTED IN /scratch/hpc-prf-metdyn/metdyn02_Remi
                                           /05_TMD_new/3_WS2__/SZVnonaug

 CP2K| version string:                 CP2K version 2025.1 (Development Version)
 CP2K| source code revision number:                                  git:400017f
 CP2K| cp2kflags: omp libint fftw3 libxc libgrpp elpa parallel scalapack mpi_f08
 CP2K|             cosma xsmm plumed2 spglib libvori libbqb libvdwxc hdf5
 CP2K| is freely available from                            https://www.cp2k.org/
 CP2K| Program compiled at                         Thu Jun 26 12:02:16 CEST 2025
 CP2K| Program compiled on                                              n2login1
 CP2K| Program compiled for                                                local
 CP2K| Data directory path    /opt/software/pc2/EB-SW/software/CP2K/2024.1-foss-
 CP2K| Input file name                                                    GW.inp

 GLOBAL| Force Environment number                                              1
 GLOBAL| Basis set file name                                        BASIS_MOLOPT
 GLOBAL| Potential file name                                  GTH_SOC_POTENTIALS
 GLOBAL| MM Potential file name                                     MM_POTENTIAL
 GLOBAL| Coordinate file name                                      __STD_INPUT__
 GLOBAL| Method name                                                        CP2K
 GLOBAL| Project name                                                        WS2
 GLOBAL| Run type                                                         ENERGY
 GLOBAL| FFT library                                                       FFTW3
 GLOBAL| Diagonalization library                                            ELPA
 GLOBAL| Cholesky decomposition library                                ScaLAPACK
 GLOBAL| DGEMM library                                                      BLAS
 GLOBAL| Minimum number of eigenvectors for ELPA usage                        16
 GLOBAL| Orthonormality check for eigenvectors                          DISABLED
 GLOBAL| Matrix multiplication library                                     COSMA
 GLOBAL| All-to-all communication in single precision                          F
 GLOBAL| FFTs using library dependent lengths                                  F
 GLOBAL| Grid backend                                                       AUTO
 GLOBAL| Global print level                                               MEDIUM
 GLOBAL| MPI I/O enabled                                                       T
 GLOBAL| Total number of message passing processes                           256
 GLOBAL| Number of threads for this process                                    8
 GLOBAL| This output is from process                                           0
 GLOBAL| OpenMP stack size per thread (OMP_STACKSIZE)                    default
 GLOBAL| CPU model name                          AMD EPYC 7763 64-Core Processor
 GLOBAL| CPUID                                                              1002

 MEMORY| system memory details [Kb]
 MEMORY|                        rank 0           min           max       average
 MEMORY| MemTotal            263897560     263897560     263897628     263897594
 MEMORY| MemFree             251139500     242790392     251313260     249074770
 MEMORY| Buffers                 57796         27364        123588         86049
 MEMORY| Cached                5999912       5999912      13680824       8063171
 MEMORY| Slab                  1322824       1231596       1722172       1341347
 MEMORY| SReclaimable           215148        208156        281220        246353
 MEMORY| MemLikelyFree       257412356     256694536     257706288     257470344


 *** Fundamental physical constants (SI units) ***

 *** Literature: B. J. Mohr and B. N. Taylor,
 ***             CODATA recommended values of the fundamental physical
 ***             constants: 2006, Web Version 5.1
 ***             http://physics.nist.gov/constants

 Speed of light in vacuum [m/s]                             2.99792458000000E+08
 Magnetic constant or permeability of vacuum [N/A**2]       1.25663706143592E-06
 Electric constant or permittivity of vacuum [F/m]          8.85418781762039E-12
 Planck constant (h) [J*s]                                  6.62606896000000E-34
 Planck constant (h-bar) [J*s]                              1.05457162825177E-34
 Elementary charge [C]                                      1.60217648700000E-19
 Electron mass [kg]                                         9.10938215000000E-31
 Electron g factor [ ]                                     -2.00231930436220E+00
 Proton mass [kg]                                           1.67262163700000E-27
 Fine-structure constant                                    7.29735253760000E-03
 Rydberg constant [1/m]                                     1.09737315685270E+07
 Avogadro constant [1/mol]                                  6.02214179000000E+23
 Boltzmann constant [J/K]                                   1.38065040000000E-23
 Atomic mass unit [kg]                                      1.66053878200000E-27
 Bohr radius [m]                                            5.29177208590000E-11

 *** Conversion factors ***

 [u] -> [a.u.]                                              1.82288848426455E+03
 [Angstrom] -> [Bohr] = [a.u.]                              1.88972613288564E+00
 [a.u.] = [Bohr] -> [Angstrom]                              5.29177208590000E-01
 [a.u.] -> [s]                                              2.41888432650478E-17
 [a.u.] -> [fs]                                             2.41888432650478E-02
 [a.u.] -> [J]                                              4.35974393937059E-18
 [a.u.] -> [N]                                              8.23872205491840E-08
 [a.u.] -> [K]                                              3.15774647902944E+05
 [a.u.] -> [kJ/mol]                                         2.62549961709828E+03
 [a.u.] -> [kcal/mol]                                       6.27509468713739E+02
 [a.u.] -> [Pa]                                             2.94210107994716E+13
 [a.u.] -> [bar]                                            2.94210107994716E+08
 [a.u.] -> [atm]                                            2.90362800883016E+08
 [a.u.] -> [eV]                                             2.72113838565563E+01
 [a.u.] -> [Hz]                                             6.57968392072181E+15
 [a.u.] -> [1/cm] (wave numbers)                            2.19474631370540E+05
 [a.u./Bohr**2] -> [1/cm]                                   5.14048714338585E+03
 

 CELL_TOP| Volume [angstrom^3]:                                       131.860110
 CELL_TOP| Vector a [angstrom     3.186     0.000     0.000   |a| =     3.186000
 CELL_TOP| Vector b [angstrom    -1.593     2.759     0.000   |b| =     3.186000
 CELL_TOP| Vector c [angstrom     0.000     0.000    15.000   |c| =    15.000000
 CELL_TOP| Angle (b,c), alpha [degree]:                                90.000000
 CELL_TOP| Angle (a,c), beta  [degree]:                                90.000000
 CELL_TOP| Angle (a,b), gamma [degree]:                               120.000000
 CELL_TOP| Numerically orthorhombic:                                          NO
 CELL_TOP| Periodicity                                                        XY

 GENERATE|  Preliminary Number of Bonds generated:                             0
 GENERATE|  Achieved consistency in connectivity generation.

 CELL| Volume [angstrom^3]:                                           131.860110
 CELL| Vector a [angstrom]:       3.186     0.000     0.000   |a| =     3.186000
 CELL| Vector b [angstrom]:      -1.593     2.759     0.000   |b| =     3.186000
 CELL| Vector c [angstrom]:       0.000     0.000    15.000   |c| =    15.000000
 CELL| Angle (b,c), alpha [degree]:                                    90.000000
 CELL| Angle (a,c), beta  [degree]:                                    90.000000
 CELL| Angle (a,b), gamma [degree]:                                   120.000000
 CELL| Numerically orthorhombic:                                              NO
 CELL| Periodicity                                                            XY

 CELL_REF| Volume [angstrom^3]:                                       131.860110
 CELL_REF| Vector a [angstrom     3.186     0.000     0.000   |a| =     3.186000
 CELL_REF| Vector b [angstrom    -1.593     2.759     0.000   |b| =     3.186000
 CELL_REF| Vector c [angstrom     0.000     0.000    15.000   |c| =    15.000000
 CELL_REF| Angle (b,c), alpha [degree]:                                90.000000
 CELL_REF| Angle (a,c), beta  [degree]:                                90.000000
 CELL_REF| Angle (a,b), gamma [degree]:                               120.000000
 CELL_REF| Numerically orthorhombic:                                          NO
 CELL_REF| Periodicity                                                        XY

 *******************************************************************************
                                    Kpoints
 *******************************************************************************
 BRILLOUIN| K-point scheme                                        Monkhorst-Pack
 BRILLOUIN| K-Point grid                                            32   32    1
 BRILLOUIN| Accuracy in Symmetry determination                      0.100000E-05
 BRILLOUIN| K-Point point group symmetrization                               OFF
 BRILLOUIN| Wavefunction type                                            COMPLEX
 BRILLOUIN| List of Kpoints [2 Pi/Bohr]                                      512
 BRILLOUIN| Number           Weight            X              Y              Z
 BRILLOUIN|     1           0.00195       -0.48438       -0.48438        0.00000
 BRILLOUIN|     2           0.00195       -0.48438       -0.45312        0.00000
 BRILLOUIN|     3           0.00195       -0.48438       -0.42188        0.00000
 BRILLOUIN|     4           0.00195       -0.48438       -0.39062        0.00000
 BRILLOUIN|     5           0.00195       -0.48438       -0.35938        0.00000
 BRILLOUIN|     6           0.00195       -0.48438       -0.32812        0.00000
 BRILLOUIN|     7           0.00195       -0.48438       -0.29688        0.00000
 BRILLOUIN|     8           0.00195       -0.48438       -0.26562        0.00000
 BRILLOUIN|     9           0.00195       -0.48438       -0.23438        0.00000
 BRILLOUIN|    10           0.00195       -0.48438       -0.20312        0.00000
 BRILLOUIN|    11           0.00195       -0.48438       -0.17188        0.00000
 BRILLOUIN|    12           0.00195       -0.48438       -0.14062        0.00000
 BRILLOUIN|    13           0.00195       -0.48438       -0.10938        0.00000
 BRILLOUIN|    14           0.00195       -0.48438       -0.07812        0.00000
 BRILLOUIN|    15           0.00195       -0.48438       -0.04688        0.00000
 BRILLOUIN|    16           0.00195       -0.48438       -0.01562        0.00000
 BRILLOUIN|    17           0.00195       -0.48438        0.01562        0.00000
 BRILLOUIN|    18           0.00195       -0.48438        0.04688        0.00000
 BRILLOUIN|    19           0.00195       -0.48438        0.07812        0.00000
 BRILLOUIN|    20           0.00195       -0.48438        0.10938        0.00000
 BRILLOUIN|    21           0.00195       -0.48438        0.14062        0.00000
 BRILLOUIN|    22           0.00195       -0.48438        0.17188        0.00000
 BRILLOUIN|    23           0.00195       -0.48438        0.20312        0.00000
 BRILLOUIN|    24           0.00195       -0.48438        0.23438        0.00000
 BRILLOUIN|    25           0.00195       -0.48438        0.26562        0.00000
 BRILLOUIN|    26           0.00195       -0.48438        0.29688        0.00000
 BRILLOUIN|    27           0.00195       -0.48438        0.32812        0.00000
 BRILLOUIN|    28           0.00195       -0.48438        0.35938        0.00000
 BRILLOUIN|    29           0.00195       -0.48438        0.39062        0.00000
 BRILLOUIN|    30           0.00195       -0.48438        0.42188        0.00000
 BRILLOUIN|    31           0.00195       -0.48438        0.45312        0.00000
 BRILLOUIN|    32           0.00195       -0.48438        0.48438        0.00000
 BRILLOUIN|    33           0.00195       -0.45312       -0.48438        0.00000
 BRILLOUIN|    34           0.00195       -0.45312       -0.45312        0.00000
 BRILLOUIN|    35           0.00195       -0.45312       -0.42188        0.00000
 BRILLOUIN|    36           0.00195       -0.45312       -0.39062        0.00000
 BRILLOUIN|    37           0.00195       -0.45312       -0.35938        0.00000
 BRILLOUIN|    38           0.00195       -0.45312       -0.32812        0.00000
 BRILLOUIN|    39           0.00195       -0.45312       -0.29688        0.00000
 BRILLOUIN|    40           0.00195       -0.45312       -0.26562        0.00000
 BRILLOUIN|    41           0.00195       -0.45312       -0.23438        0.00000
 BRILLOUIN|    42           0.00195       -0.45312       -0.20312        0.00000
 BRILLOUIN|    43           0.00195       -0.45312       -0.17188        0.00000
 BRILLOUIN|    44           0.00195       -0.45312       -0.14062        0.00000
 BRILLOUIN|    45           0.00195       -0.45312       -0.10938        0.00000
 BRILLOUIN|    46           0.00195       -0.45312       -0.07812        0.00000
 BRILLOUIN|    47           0.00195       -0.45312       -0.04688        0.00000
 BRILLOUIN|    48           0.00195       -0.45312       -0.01562        0.00000
 BRILLOUIN|    49           0.00195       -0.45312        0.01562        0.00000
 BRILLOUIN|    50           0.00195       -0.45312        0.04688        0.00000
 BRILLOUIN|    51           0.00195       -0.45312        0.07812        0.00000
 BRILLOUIN|    52           0.00195       -0.45312        0.10938        0.00000
 BRILLOUIN|    53           0.00195       -0.45312        0.14062        0.00000
 BRILLOUIN|    54           0.00195       -0.45312        0.17188        0.00000
 BRILLOUIN|    55           0.00195       -0.45312        0.20312        0.00000
 BRILLOUIN|    56           0.00195       -0.45312        0.23438        0.00000
 BRILLOUIN|    57           0.00195       -0.45312        0.26562        0.00000
 BRILLOUIN|    58           0.00195       -0.45312        0.29688        0.00000
 BRILLOUIN|    59           0.00195       -0.45312        0.32812        0.00000
 BRILLOUIN|    60           0.00195       -0.45312        0.35938        0.00000
 BRILLOUIN|    61           0.00195       -0.45312        0.39062        0.00000
 BRILLOUIN|    62           0.00195       -0.45312        0.42188        0.00000
 BRILLOUIN|    63           0.00195       -0.45312        0.45312        0.00000
 BRILLOUIN|    64           0.00195       -0.45312        0.48438        0.00000
 BRILLOUIN|    65           0.00195       -0.42188       -0.48438        0.00000
 BRILLOUIN|    66           0.00195       -0.42188       -0.45312        0.00000
 BRILLOUIN|    67           0.00195       -0.42188       -0.42188        0.00000
 BRILLOUIN|    68           0.00195       -0.42188       -0.39062        0.00000
 BRILLOUIN|    69           0.00195       -0.42188       -0.35938        0.00000
 BRILLOUIN|    70           0.00195       -0.42188       -0.32812        0.00000
 BRILLOUIN|    71           0.00195       -0.42188       -0.29688        0.00000
 BRILLOUIN|    72           0.00195       -0.42188       -0.26562        0.00000
 BRILLOUIN|    73           0.00195       -0.42188       -0.23438        0.00000
 BRILLOUIN|    74           0.00195       -0.42188       -0.20312        0.00000
 BRILLOUIN|    75           0.00195       -0.42188       -0.17188        0.00000
 BRILLOUIN|    76           0.00195       -0.42188       -0.14062        0.00000
 BRILLOUIN|    77           0.00195       -0.42188       -0.10938        0.00000
 BRILLOUIN|    78           0.00195       -0.42188       -0.07812        0.00000
 BRILLOUIN|    79           0.00195       -0.42188       -0.04688        0.00000
 BRILLOUIN|    80           0.00195       -0.42188       -0.01562        0.00000
 BRILLOUIN|    81           0.00195       -0.42188        0.01562        0.00000
 BRILLOUIN|    82           0.00195       -0.42188        0.04688        0.00000
 BRILLOUIN|    83           0.00195       -0.42188        0.07812        0.00000
 BRILLOUIN|    84           0.00195       -0.42188        0.10938        0.00000
 BRILLOUIN|    85           0.00195       -0.42188        0.14062        0.00000
 BRILLOUIN|    86           0.00195       -0.42188        0.17188        0.00000
 BRILLOUIN|    87           0.00195       -0.42188        0.20312        0.00000
 BRILLOUIN|    88           0.00195       -0.42188        0.23438        0.00000
 BRILLOUIN|    89           0.00195       -0.42188        0.26562        0.00000
 BRILLOUIN|    90           0.00195       -0.42188        0.29688        0.00000
 BRILLOUIN|    91           0.00195       -0.42188        0.32812        0.00000
 BRILLOUIN|    92           0.00195       -0.42188        0.35938        0.00000
 BRILLOUIN|    93           0.00195       -0.42188        0.39062        0.00000
 BRILLOUIN|    94           0.00195       -0.42188        0.42188        0.00000
 BRILLOUIN|    95           0.00195       -0.42188        0.45312        0.00000
 BRILLOUIN|    96           0.00195       -0.42188        0.48438        0.00000
 BRILLOUIN|    97           0.00195       -0.39062       -0.48438        0.00000
 BRILLOUIN|    98           0.00195       -0.39062       -0.45312        0.00000
 BRILLOUIN|    99           0.00195       -0.39062       -0.42188        0.00000
 BRILLOUIN|   100           0.00195       -0.39062       -0.39062        0.00000
 BRILLOUIN|   101           0.00195       -0.39062       -0.35938        0.00000
 BRILLOUIN|   102           0.00195       -0.39062       -0.32812        0.00000
 BRILLOUIN|   103           0.00195       -0.39062       -0.29688        0.00000
 BRILLOUIN|   104           0.00195       -0.39062       -0.26562        0.00000
 BRILLOUIN|   105           0.00195       -0.39062       -0.23438        0.00000
 BRILLOUIN|   106           0.00195       -0.39062       -0.20312        0.00000
 BRILLOUIN|   107           0.00195       -0.39062       -0.17188        0.00000
 BRILLOUIN|   108           0.00195       -0.39062       -0.14062        0.00000
 BRILLOUIN|   109           0.00195       -0.39062       -0.10938        0.00000
 BRILLOUIN|   110           0.00195       -0.39062       -0.07812        0.00000
 BRILLOUIN|   111           0.00195       -0.39062       -0.04688        0.00000
 BRILLOUIN|   112           0.00195       -0.39062       -0.01562        0.00000
 BRILLOUIN|   113           0.00195       -0.39062        0.01562        0.00000
 BRILLOUIN|   114           0.00195       -0.39062        0.04688        0.00000
 BRILLOUIN|   115           0.00195       -0.39062        0.07812        0.00000
 BRILLOUIN|   116           0.00195       -0.39062        0.10938        0.00000
 BRILLOUIN|   117           0.00195       -0.39062        0.14062        0.00000
 BRILLOUIN|   118           0.00195       -0.39062        0.17188        0.00000
 BRILLOUIN|   119           0.00195       -0.39062        0.20312        0.00000
 BRILLOUIN|   120           0.00195       -0.39062        0.23438        0.00000
 BRILLOUIN|   121           0.00195       -0.39062        0.26562        0.00000
 BRILLOUIN|   122           0.00195       -0.39062        0.29688        0.00000
 BRILLOUIN|   123           0.00195       -0.39062        0.32812        0.00000
 BRILLOUIN|   124           0.00195       -0.39062        0.35938        0.00000
 BRILLOUIN|   125           0.00195       -0.39062        0.39062        0.00000
 BRILLOUIN|   126           0.00195       -0.39062        0.42188        0.00000
 BRILLOUIN|   127           0.00195       -0.39062        0.45312        0.00000
 BRILLOUIN|   128           0.00195       -0.39062        0.48438        0.00000
 BRILLOUIN|   129           0.00195       -0.35938       -0.48438        0.00000
 BRILLOUIN|   130           0.00195       -0.35938       -0.45312        0.00000
 BRILLOUIN|   131           0.00195       -0.35938       -0.42188        0.00000
 BRILLOUIN|   132           0.00195       -0.35938       -0.39062        0.00000
 BRILLOUIN|   133           0.00195       -0.35938       -0.35938        0.00000
 BRILLOUIN|   134           0.00195       -0.35938       -0.32812        0.00000
 BRILLOUIN|   135           0.00195       -0.35938       -0.29688        0.00000
 BRILLOUIN|   136           0.00195       -0.35938       -0.26562        0.00000
 BRILLOUIN|   137           0.00195       -0.35938       -0.23438        0.00000
 BRILLOUIN|   138           0.00195       -0.35938       -0.20312        0.00000
 BRILLOUIN|   139           0.00195       -0.35938       -0.17188        0.00000
 BRILLOUIN|   140           0.00195       -0.35938       -0.14062        0.00000
 BRILLOUIN|   141           0.00195       -0.35938       -0.10938        0.00000
 BRILLOUIN|   142           0.00195       -0.35938       -0.07812        0.00000
 BRILLOUIN|   143           0.00195       -0.35938       -0.04688        0.00000
 BRILLOUIN|   144           0.00195       -0.35938       -0.01562        0.00000
 BRILLOUIN|   145           0.00195       -0.35938        0.01562        0.00000
 BRILLOUIN|   146           0.00195       -0.35938        0.04688        0.00000
 BRILLOUIN|   147           0.00195       -0.35938        0.07812        0.00000
 BRILLOUIN|   148           0.00195       -0.35938        0.10938        0.00000
 BRILLOUIN|   149           0.00195       -0.35938        0.14062        0.00000
 BRILLOUIN|   150           0.00195       -0.35938        0.17188        0.00000
 BRILLOUIN|   151           0.00195       -0.35938        0.20312        0.00000
 BRILLOUIN|   152           0.00195       -0.35938        0.23438        0.00000
 BRILLOUIN|   153           0.00195       -0.35938        0.26562        0.00000
 BRILLOUIN|   154           0.00195       -0.35938        0.29688        0.00000
 BRILLOUIN|   155           0.00195       -0.35938        0.32812        0.00000
 BRILLOUIN|   156           0.00195       -0.35938        0.35938        0.00000
 BRILLOUIN|   157           0.00195       -0.35938        0.39062        0.00000
 BRILLOUIN|   158           0.00195       -0.35938        0.42188        0.00000
 BRILLOUIN|   159           0.00195       -0.35938        0.45312        0.00000
 BRILLOUIN|   160           0.00195       -0.35938        0.48438        0.00000
 BRILLOUIN|   161           0.00195       -0.32812       -0.48438        0.00000
 BRILLOUIN|   162           0.00195       -0.32812       -0.45312        0.00000
 BRILLOUIN|   163           0.00195       -0.32812       -0.42188        0.00000
 BRILLOUIN|   164           0.00195       -0.32812       -0.39062        0.00000
 BRILLOUIN|   165           0.00195       -0.32812       -0.35938        0.00000
 BRILLOUIN|   166           0.00195       -0.32812       -0.32812        0.00000
 BRILLOUIN|   167           0.00195       -0.32812       -0.29688        0.00000
 BRILLOUIN|   168           0.00195       -0.32812       -0.26562        0.00000
 BRILLOUIN|   169           0.00195       -0.32812       -0.23438        0.00000
 BRILLOUIN|   170           0.00195       -0.32812       -0.20312        0.00000
 BRILLOUIN|   171           0.00195       -0.32812       -0.17188        0.00000
 BRILLOUIN|   172           0.00195       -0.32812       -0.14062        0.00000
 BRILLOUIN|   173           0.00195       -0.32812       -0.10938        0.00000
 BRILLOUIN|   174           0.00195       -0.32812       -0.07812        0.00000
 BRILLOUIN|   175           0.00195       -0.32812       -0.04688        0.00000
 BRILLOUIN|   176           0.00195       -0.32812       -0.01562        0.00000
 BRILLOUIN|   177           0.00195       -0.32812        0.01562        0.00000
 BRILLOUIN|   178           0.00195       -0.32812        0.04688        0.00000
 BRILLOUIN|   179           0.00195       -0.32812        0.07812        0.00000
 BRILLOUIN|   180           0.00195       -0.32812        0.10938        0.00000
 BRILLOUIN|   181           0.00195       -0.32812        0.14062        0.00000
 BRILLOUIN|   182           0.00195       -0.32812        0.17188        0.00000
 BRILLOUIN|   183           0.00195       -0.32812        0.20312        0.00000
 BRILLOUIN|   184           0.00195       -0.32812        0.23438        0.00000
 BRILLOUIN|   185           0.00195       -0.32812        0.26562        0.00000
 BRILLOUIN|   186           0.00195       -0.32812        0.29688        0.00000
 BRILLOUIN|   187           0.00195       -0.32812        0.32812        0.00000
 BRILLOUIN|   188           0.00195       -0.32812        0.35938        0.00000
 BRILLOUIN|   189           0.00195       -0.32812        0.39062        0.00000
 BRILLOUIN|   190           0.00195       -0.32812        0.42188        0.00000
 BRILLOUIN|   191           0.00195       -0.32812        0.45312        0.00000
 BRILLOUIN|   192           0.00195       -0.32812        0.48438        0.00000
 BRILLOUIN|   193           0.00195       -0.29688       -0.48438        0.00000
 BRILLOUIN|   194           0.00195       -0.29688       -0.45312        0.00000
 BRILLOUIN|   195           0.00195       -0.29688       -0.42188        0.00000
 BRILLOUIN|   196           0.00195       -0.29688       -0.39062        0.00000
 BRILLOUIN|   197           0.00195       -0.29688       -0.35938        0.00000
 BRILLOUIN|   198           0.00195       -0.29688       -0.32812        0.00000
 BRILLOUIN|   199           0.00195       -0.29688       -0.29688        0.00000
 BRILLOUIN|   200           0.00195       -0.29688       -0.26562        0.00000
 BRILLOUIN|   201           0.00195       -0.29688       -0.23438        0.00000
 BRILLOUIN|   202           0.00195       -0.29688       -0.20312        0.00000
 BRILLOUIN|   203           0.00195       -0.29688       -0.17188        0.00000
 BRILLOUIN|   204           0.00195       -0.29688       -0.14062        0.00000
 BRILLOUIN|   205           0.00195       -0.29688       -0.10938        0.00000
 BRILLOUIN|   206           0.00195       -0.29688       -0.07812        0.00000
 BRILLOUIN|   207           0.00195       -0.29688       -0.04688        0.00000
 BRILLOUIN|   208           0.00195       -0.29688       -0.01562        0.00000
 BRILLOUIN|   209           0.00195       -0.29688        0.01562        0.00000
 BRILLOUIN|   210           0.00195       -0.29688        0.04688        0.00000
 BRILLOUIN|   211           0.00195       -0.29688        0.07812        0.00000
 BRILLOUIN|   212           0.00195       -0.29688        0.10938        0.00000
 BRILLOUIN|   213           0.00195       -0.29688        0.14062        0.00000
 BRILLOUIN|   214           0.00195       -0.29688        0.17188        0.00000
 BRILLOUIN|   215           0.00195       -0.29688        0.20312        0.00000
 BRILLOUIN|   216           0.00195       -0.29688        0.23438        0.00000
 BRILLOUIN|   217           0.00195       -0.29688        0.26562        0.00000
 BRILLOUIN|   218           0.00195       -0.29688        0.29688        0.00000
 BRILLOUIN|   219           0.00195       -0.29688        0.32812        0.00000
 BRILLOUIN|   220           0.00195       -0.29688        0.35938        0.00000
 BRILLOUIN|   221           0.00195       -0.29688        0.39062        0.00000
 BRILLOUIN|   222           0.00195       -0.29688        0.42188        0.00000
 BRILLOUIN|   223           0.00195       -0.29688        0.45312        0.00000
 BRILLOUIN|   224           0.00195       -0.29688        0.48438        0.00000
 BRILLOUIN|   225           0.00195       -0.26562       -0.48438        0.00000
 BRILLOUIN|   226           0.00195       -0.26562       -0.45312        0.00000
 BRILLOUIN|   227           0.00195       -0.26562       -0.42188        0.00000
 BRILLOUIN|   228           0.00195       -0.26562       -0.39062        0.00000
 BRILLOUIN|   229           0.00195       -0.26562       -0.35938        0.00000
 BRILLOUIN|   230           0.00195       -0.26562       -0.32812        0.00000
 BRILLOUIN|   231           0.00195       -0.26562       -0.29688        0.00000
 BRILLOUIN|   232           0.00195       -0.26562       -0.26562        0.00000
 BRILLOUIN|   233           0.00195       -0.26562       -0.23438        0.00000
 BRILLOUIN|   234           0.00195       -0.26562       -0.20312        0.00000
 BRILLOUIN|   235           0.00195       -0.26562       -0.17188        0.00000
 BRILLOUIN|   236           0.00195       -0.26562       -0.14062        0.00000
 BRILLOUIN|   237           0.00195       -0.26562       -0.10938        0.00000
 BRILLOUIN|   238           0.00195       -0.26562       -0.07812        0.00000
 BRILLOUIN|   239           0.00195       -0.26562       -0.04688        0.00000
 BRILLOUIN|   240           0.00195       -0.26562       -0.01562        0.00000
 BRILLOUIN|   241           0.00195       -0.26562        0.01562        0.00000
 BRILLOUIN|   242           0.00195       -0.26562        0.04688        0.00000
 BRILLOUIN|   243           0.00195       -0.26562        0.07812        0.00000
 BRILLOUIN|   244           0.00195       -0.26562        0.10938        0.00000
 BRILLOUIN|   245           0.00195       -0.26562        0.14062        0.00000
 BRILLOUIN|   246           0.00195       -0.26562        0.17188        0.00000
 BRILLOUIN|   247           0.00195       -0.26562        0.20312        0.00000
 BRILLOUIN|   248           0.00195       -0.26562        0.23438        0.00000
 BRILLOUIN|   249           0.00195       -0.26562        0.26562        0.00000
 BRILLOUIN|   250           0.00195       -0.26562        0.29688        0.00000
 BRILLOUIN|   251           0.00195       -0.26562        0.32812        0.00000
 BRILLOUIN|   252           0.00195       -0.26562        0.35938        0.00000
 BRILLOUIN|   253           0.00195       -0.26562        0.39062        0.00000
 BRILLOUIN|   254           0.00195       -0.26562        0.42188        0.00000
 BRILLOUIN|   255           0.00195       -0.26562        0.45312        0.00000
 BRILLOUIN|   256           0.00195       -0.26562        0.48438        0.00000
 BRILLOUIN|   257           0.00195       -0.23438       -0.48438        0.00000
 BRILLOUIN|   258           0.00195       -0.23438       -0.45312        0.00000
 BRILLOUIN|   259           0.00195       -0.23438       -0.42188        0.00000
 BRILLOUIN|   260           0.00195       -0.23438       -0.39062        0.00000
 BRILLOUIN|   261           0.00195       -0.23438       -0.35938        0.00000
 BRILLOUIN|   262           0.00195       -0.23438       -0.32812        0.00000
 BRILLOUIN|   263           0.00195       -0.23438       -0.29688        0.00000
 BRILLOUIN|   264           0.00195       -0.23438       -0.26562        0.00000
 BRILLOUIN|   265           0.00195       -0.23438       -0.23438        0.00000
 BRILLOUIN|   266           0.00195       -0.23438       -0.20312        0.00000
 BRILLOUIN|   267           0.00195       -0.23438       -0.17188        0.00000
 BRILLOUIN|   268           0.00195       -0.23438       -0.14062        0.00000
 BRILLOUIN|   269           0.00195       -0.23438       -0.10938        0.00000
 BRILLOUIN|   270           0.00195       -0.23438       -0.07812        0.00000
 BRILLOUIN|   271           0.00195       -0.23438       -0.04688        0.00000
 BRILLOUIN|   272           0.00195       -0.23438       -0.01562        0.00000
 BRILLOUIN|   273           0.00195       -0.23438        0.01562        0.00000
 BRILLOUIN|   274           0.00195       -0.23438        0.04688        0.00000
 BRILLOUIN|   275           0.00195       -0.23438        0.07812        0.00000
 BRILLOUIN|   276           0.00195       -0.23438        0.10938        0.00000
 BRILLOUIN|   277           0.00195       -0.23438        0.14062        0.00000
 BRILLOUIN|   278           0.00195       -0.23438        0.17188        0.00000
 BRILLOUIN|   279           0.00195       -0.23438        0.20312        0.00000
 BRILLOUIN|   280           0.00195       -0.23438        0.23438        0.00000
 BRILLOUIN|   281           0.00195       -0.23438        0.26562        0.00000
 BRILLOUIN|   282           0.00195       -0.23438        0.29688        0.00000
 BRILLOUIN|   283           0.00195       -0.23438        0.32812        0.00000
 BRILLOUIN|   284           0.00195       -0.23438        0.35938        0.00000
 BRILLOUIN|   285           0.00195       -0.23438        0.39062        0.00000
 BRILLOUIN|   286           0.00195       -0.23438        0.42188        0.00000
 BRILLOUIN|   287           0.00195       -0.23438        0.45312        0.00000
 BRILLOUIN|   288           0.00195       -0.23438        0.48438        0.00000
 BRILLOUIN|   289           0.00195       -0.20312       -0.48438        0.00000
 BRILLOUIN|   290           0.00195       -0.20312       -0.45312        0.00000
 BRILLOUIN|   291           0.00195       -0.20312       -0.42188        0.00000
 BRILLOUIN|   292           0.00195       -0.20312       -0.39062        0.00000
 BRILLOUIN|   293           0.00195       -0.20312       -0.35938        0.00000
 BRILLOUIN|   294           0.00195       -0.20312       -0.32812        0.00000
 BRILLOUIN|   295           0.00195       -0.20312       -0.29688        0.00000
 BRILLOUIN|   296           0.00195       -0.20312       -0.26562        0.00000
 BRILLOUIN|   297           0.00195       -0.20312       -0.23438        0.00000
 BRILLOUIN|   298           0.00195       -0.20312       -0.20312        0.00000
 BRILLOUIN|   299           0.00195       -0.20312       -0.17188        0.00000
 BRILLOUIN|   300           0.00195       -0.20312       -0.14062        0.00000
 BRILLOUIN|   301           0.00195       -0.20312       -0.10938        0.00000
 BRILLOUIN|   302           0.00195       -0.20312       -0.07812        0.00000
 BRILLOUIN|   303           0.00195       -0.20312       -0.04688        0.00000
 BRILLOUIN|   304           0.00195       -0.20312       -0.01562        0.00000
 BRILLOUIN|   305           0.00195       -0.20312        0.01562        0.00000
 BRILLOUIN|   306           0.00195       -0.20312        0.04688        0.00000
 BRILLOUIN|   307           0.00195       -0.20312        0.07812        0.00000
 BRILLOUIN|   308           0.00195       -0.20312        0.10938        0.00000
 BRILLOUIN|   309           0.00195       -0.20312        0.14062        0.00000
 BRILLOUIN|   310           0.00195       -0.20312        0.17188        0.00000
 BRILLOUIN|   311           0.00195       -0.20312        0.20312        0.00000
 BRILLOUIN|   312           0.00195       -0.20312        0.23438        0.00000
 BRILLOUIN|   313           0.00195       -0.20312        0.26562        0.00000
 BRILLOUIN|   314           0.00195       -0.20312        0.29688        0.00000
 BRILLOUIN|   315           0.00195       -0.20312        0.32812        0.00000
 BRILLOUIN|   316           0.00195       -0.20312        0.35938        0.00000
 BRILLOUIN|   317           0.00195       -0.20312        0.39062        0.00000
 BRILLOUIN|   318           0.00195       -0.20312        0.42188        0.00000
 BRILLOUIN|   319           0.00195       -0.20312        0.45312        0.00000
 BRILLOUIN|   320           0.00195       -0.20312        0.48438        0.00000
 BRILLOUIN|   321           0.00195       -0.17188       -0.48438        0.00000
 BRILLOUIN|   322           0.00195       -0.17188       -0.45312        0.00000
 BRILLOUIN|   323           0.00195       -0.17188       -0.42188        0.00000
 BRILLOUIN|   324           0.00195       -0.17188       -0.39062        0.00000
 BRILLOUIN|   325           0.00195       -0.17188       -0.35938        0.00000
 BRILLOUIN|   326           0.00195       -0.17188       -0.32812        0.00000
 BRILLOUIN|   327           0.00195       -0.17188       -0.29688        0.00000
 BRILLOUIN|   328           0.00195       -0.17188       -0.26562        0.00000
 BRILLOUIN|   329           0.00195       -0.17188       -0.23438        0.00000
 BRILLOUIN|   330           0.00195       -0.17188       -0.20312        0.00000
 BRILLOUIN|   331           0.00195       -0.17188       -0.17188        0.00000
 BRILLOUIN|   332           0.00195       -0.17188       -0.14062        0.00000
 BRILLOUIN|   333           0.00195       -0.17188       -0.10938        0.00000
 BRILLOUIN|   334           0.00195       -0.17188       -0.07812        0.00000
 BRILLOUIN|   335           0.00195       -0.17188       -0.04688        0.00000
 BRILLOUIN|   336           0.00195       -0.17188       -0.01562        0.00000
 BRILLOUIN|   337           0.00195       -0.17188        0.01562        0.00000
 BRILLOUIN|   338           0.00195       -0.17188        0.04688        0.00000
 BRILLOUIN|   339           0.00195       -0.17188        0.07812        0.00000
 BRILLOUIN|   340           0.00195       -0.17188        0.10938        0.00000
 BRILLOUIN|   341           0.00195       -0.17188        0.14062        0.00000
 BRILLOUIN|   342           0.00195       -0.17188        0.17188        0.00000
 BRILLOUIN|   343           0.00195       -0.17188        0.20312        0.00000
 BRILLOUIN|   344           0.00195       -0.17188        0.23438        0.00000
 BRILLOUIN|   345           0.00195       -0.17188        0.26562        0.00000
 BRILLOUIN|   346           0.00195       -0.17188        0.29688        0.00000
 BRILLOUIN|   347           0.00195       -0.17188        0.32812        0.00000
 BRILLOUIN|   348           0.00195       -0.17188        0.35938        0.00000
 BRILLOUIN|   349           0.00195       -0.17188        0.39062        0.00000
 BRILLOUIN|   350           0.00195       -0.17188        0.42188        0.00000
 BRILLOUIN|   351           0.00195       -0.17188        0.45312        0.00000
 BRILLOUIN|   352           0.00195       -0.17188        0.48438        0.00000
 BRILLOUIN|   353           0.00195       -0.14062       -0.48438        0.00000
 BRILLOUIN|   354           0.00195       -0.14062       -0.45312        0.00000
 BRILLOUIN|   355           0.00195       -0.14062       -0.42188        0.00000
 BRILLOUIN|   356           0.00195       -0.14062       -0.39062        0.00000
 BRILLOUIN|   357           0.00195       -0.14062       -0.35938        0.00000
 BRILLOUIN|   358           0.00195       -0.14062       -0.32812        0.00000
 BRILLOUIN|   359           0.00195       -0.14062       -0.29688        0.00000
 BRILLOUIN|   360           0.00195       -0.14062       -0.26562        0.00000
 BRILLOUIN|   361           0.00195       -0.14062       -0.23438        0.00000
 BRILLOUIN|   362           0.00195       -0.14062       -0.20312        0.00000
 BRILLOUIN|   363           0.00195       -0.14062       -0.17188        0.00000
 BRILLOUIN|   364           0.00195       -0.14062       -0.14062        0.00000
 BRILLOUIN|   365           0.00195       -0.14062       -0.10938        0.00000
 BRILLOUIN|   366           0.00195       -0.14062       -0.07812        0.00000
 BRILLOUIN|   367           0.00195       -0.14062       -0.04688        0.00000
 BRILLOUIN|   368           0.00195       -0.14062       -0.01562        0.00000
 BRILLOUIN|   369           0.00195       -0.14062        0.01562        0.00000
 BRILLOUIN|   370           0.00195       -0.14062        0.04688        0.00000
 BRILLOUIN|   371           0.00195       -0.14062        0.07812        0.00000
 BRILLOUIN|   372           0.00195       -0.14062        0.10938        0.00000
 BRILLOUIN|   373           0.00195       -0.14062        0.14062        0.00000
 BRILLOUIN|   374           0.00195       -0.14062        0.17188        0.00000
 BRILLOUIN|   375           0.00195       -0.14062        0.20312        0.00000
 BRILLOUIN|   376           0.00195       -0.14062        0.23438        0.00000
 BRILLOUIN|   377           0.00195       -0.14062        0.26562        0.00000
 BRILLOUIN|   378           0.00195       -0.14062        0.29688        0.00000
 BRILLOUIN|   379           0.00195       -0.14062        0.32812        0.00000
 BRILLOUIN|   380           0.00195       -0.14062        0.35938        0.00000
 BRILLOUIN|   381           0.00195       -0.14062        0.39062        0.00000
 BRILLOUIN|   382           0.00195       -0.14062        0.42188        0.00000
 BRILLOUIN|   383           0.00195       -0.14062        0.45312        0.00000
 BRILLOUIN|   384           0.00195       -0.14062        0.48438        0.00000
 BRILLOUIN|   385           0.00195       -0.10938       -0.48438        0.00000
 BRILLOUIN|   386           0.00195       -0.10938       -0.45312        0.00000
 BRILLOUIN|   387           0.00195       -0.10938       -0.42188        0.00000
 BRILLOUIN|   388           0.00195       -0.10938       -0.39062        0.00000
 BRILLOUIN|   389           0.00195       -0.10938       -0.35938        0.00000
 BRILLOUIN|   390           0.00195       -0.10938       -0.32812        0.00000
 BRILLOUIN|   391           0.00195       -0.10938       -0.29688        0.00000
 BRILLOUIN|   392           0.00195       -0.10938       -0.26562        0.00000
 BRILLOUIN|   393           0.00195       -0.10938       -0.23438        0.00000
 BRILLOUIN|   394           0.00195       -0.10938       -0.20312        0.00000
 BRILLOUIN|   395           0.00195       -0.10938       -0.17188        0.00000
 BRILLOUIN|   396           0.00195       -0.10938       -0.14062        0.00000
 BRILLOUIN|   397           0.00195       -0.10938       -0.10938        0.00000
 BRILLOUIN|   398           0.00195       -0.10938       -0.07812        0.00000
 BRILLOUIN|   399           0.00195       -0.10938       -0.04688        0.00000
 BRILLOUIN|   400           0.00195       -0.10938       -0.01562        0.00000
 BRILLOUIN|   401           0.00195       -0.10938        0.01562        0.00000
 BRILLOUIN|   402           0.00195       -0.10938        0.04688        0.00000
 BRILLOUIN|   403           0.00195       -0.10938        0.07812        0.00000
 BRILLOUIN|   404           0.00195       -0.10938        0.10938        0.00000
 BRILLOUIN|   405           0.00195       -0.10938        0.14062        0.00000
 BRILLOUIN|   406           0.00195       -0.10938        0.17188        0.00000
 BRILLOUIN|   407           0.00195       -0.10938        0.20312        0.00000
 BRILLOUIN|   408           0.00195       -0.10938        0.23438        0.00000
 BRILLOUIN|   409           0.00195       -0.10938        0.26562        0.00000
 BRILLOUIN|   410           0.00195       -0.10938        0.29688        0.00000
 BRILLOUIN|   411           0.00195       -0.10938        0.32812        0.00000
 BRILLOUIN|   412           0.00195       -0.10938        0.35938        0.00000
 BRILLOUIN|   413           0.00195       -0.10938        0.39062        0.00000
 BRILLOUIN|   414           0.00195       -0.10938        0.42188        0.00000
 BRILLOUIN|   415           0.00195       -0.10938        0.45312        0.00000
 BRILLOUIN|   416           0.00195       -0.10938        0.48438        0.00000
 BRILLOUIN|   417           0.00195       -0.07812       -0.48438        0.00000
 BRILLOUIN|   418           0.00195       -0.07812       -0.45312        0.00000
 BRILLOUIN|   419           0.00195       -0.07812       -0.42188        0.00000
 BRILLOUIN|   420           0.00195       -0.07812       -0.39062        0.00000
 BRILLOUIN|   421           0.00195       -0.07812       -0.35938        0.00000
 BRILLOUIN|   422           0.00195       -0.07812       -0.32812        0.00000
 BRILLOUIN|   423           0.00195       -0.07812       -0.29688        0.00000
 BRILLOUIN|   424           0.00195       -0.07812       -0.26562        0.00000
 BRILLOUIN|   425           0.00195       -0.07812       -0.23438        0.00000
 BRILLOUIN|   426           0.00195       -0.07812       -0.20312        0.00000
 BRILLOUIN|   427           0.00195       -0.07812       -0.17188        0.00000
 BRILLOUIN|   428           0.00195       -0.07812       -0.14062        0.00000
 BRILLOUIN|   429           0.00195       -0.07812       -0.10938        0.00000
 BRILLOUIN|   430           0.00195       -0.07812       -0.07812        0.00000
 BRILLOUIN|   431           0.00195       -0.07812       -0.04688        0.00000
 BRILLOUIN|   432           0.00195       -0.07812       -0.01562        0.00000
 BRILLOUIN|   433           0.00195       -0.07812        0.01562        0.00000
 BRILLOUIN|   434           0.00195       -0.07812        0.04688        0.00000
 BRILLOUIN|   435           0.00195       -0.07812        0.07812        0.00000
 BRILLOUIN|   436           0.00195       -0.07812        0.10938        0.00000
 BRILLOUIN|   437           0.00195       -0.07812        0.14062        0.00000
 BRILLOUIN|   438           0.00195       -0.07812        0.17188        0.00000
 BRILLOUIN|   439           0.00195       -0.07812        0.20312        0.00000
 BRILLOUIN|   440           0.00195       -0.07812        0.23438        0.00000
 BRILLOUIN|   441           0.00195       -0.07812        0.26562        0.00000
 BRILLOUIN|   442           0.00195       -0.07812        0.29688        0.00000
 BRILLOUIN|   443           0.00195       -0.07812        0.32812        0.00000
 BRILLOUIN|   444           0.00195       -0.07812        0.35938        0.00000
 BRILLOUIN|   445           0.00195       -0.07812        0.39062        0.00000
 BRILLOUIN|   446           0.00195       -0.07812        0.42188        0.00000
 BRILLOUIN|   447           0.00195       -0.07812        0.45312        0.00000
 BRILLOUIN|   448           0.00195       -0.07812        0.48438        0.00000
 BRILLOUIN|   449           0.00195       -0.04688       -0.48438        0.00000
 BRILLOUIN|   450           0.00195       -0.04688       -0.45312        0.00000
 BRILLOUIN|   451           0.00195       -0.04688       -0.42188        0.00000
 BRILLOUIN|   452           0.00195       -0.04688       -0.39062        0.00000
 BRILLOUIN|   453           0.00195       -0.04688       -0.35938        0.00000
 BRILLOUIN|   454           0.00195       -0.04688       -0.32812        0.00000
 BRILLOUIN|   455           0.00195       -0.04688       -0.29688        0.00000
 BRILLOUIN|   456           0.00195       -0.04688       -0.26562        0.00000
 BRILLOUIN|   457           0.00195       -0.04688       -0.23438        0.00000
 BRILLOUIN|   458           0.00195       -0.04688       -0.20312        0.00000
 BRILLOUIN|   459           0.00195       -0.04688       -0.17188        0.00000
 BRILLOUIN|   460           0.00195       -0.04688       -0.14062        0.00000
 BRILLOUIN|   461           0.00195       -0.04688       -0.10938        0.00000
 BRILLOUIN|   462           0.00195       -0.04688       -0.07812        0.00000
 BRILLOUIN|   463           0.00195       -0.04688       -0.04688        0.00000
 BRILLOUIN|   464           0.00195       -0.04688       -0.01562        0.00000
 BRILLOUIN|   465           0.00195       -0.04688        0.01562        0.00000
 BRILLOUIN|   466           0.00195       -0.04688        0.04688        0.00000
 BRILLOUIN|   467           0.00195       -0.04688        0.07812        0.00000
 BRILLOUIN|   468           0.00195       -0.04688        0.10938        0.00000
 BRILLOUIN|   469           0.00195       -0.04688        0.14062        0.00000
 BRILLOUIN|   470           0.00195       -0.04688        0.17188        0.00000
 BRILLOUIN|   471           0.00195       -0.04688        0.20312        0.00000
 BRILLOUIN|   472           0.00195       -0.04688        0.23438        0.00000
 BRILLOUIN|   473           0.00195       -0.04688        0.26562        0.00000
 BRILLOUIN|   474           0.00195       -0.04688        0.29688        0.00000
 BRILLOUIN|   475           0.00195       -0.04688        0.32812        0.00000
 BRILLOUIN|   476           0.00195       -0.04688        0.35938        0.00000
 BRILLOUIN|   477           0.00195       -0.04688        0.39062        0.00000
 BRILLOUIN|   478           0.00195       -0.04688        0.42188        0.00000
 BRILLOUIN|   479           0.00195       -0.04688        0.45312        0.00000
 BRILLOUIN|   480           0.00195       -0.04688        0.48438        0.00000
 BRILLOUIN|   481           0.00195       -0.01562       -0.48438        0.00000
 BRILLOUIN|   482           0.00195       -0.01562       -0.45312        0.00000
 BRILLOUIN|   483           0.00195       -0.01562       -0.42188        0.00000
 BRILLOUIN|   484           0.00195       -0.01562       -0.39062        0.00000
 BRILLOUIN|   485           0.00195       -0.01562       -0.35938        0.00000
 BRILLOUIN|   486           0.00195       -0.01562       -0.32812        0.00000
 BRILLOUIN|   487           0.00195       -0.01562       -0.29688        0.00000
 BRILLOUIN|   488           0.00195       -0.01562       -0.26562        0.00000
 BRILLOUIN|   489           0.00195       -0.01562       -0.23438        0.00000
 BRILLOUIN|   490           0.00195       -0.01562       -0.20312        0.00000
 BRILLOUIN|   491           0.00195       -0.01562       -0.17188        0.00000
 BRILLOUIN|   492           0.00195       -0.01562       -0.14062        0.00000
 BRILLOUIN|   493           0.00195       -0.01562       -0.10938        0.00000
 BRILLOUIN|   494           0.00195       -0.01562       -0.07812        0.00000
 BRILLOUIN|   495           0.00195       -0.01562       -0.04688        0.00000
 BRILLOUIN|   496           0.00195       -0.01562       -0.01562        0.00000
 BRILLOUIN|   497           0.00195       -0.01562        0.01562        0.00000
 BRILLOUIN|   498           0.00195       -0.01562        0.04688        0.00000
 BRILLOUIN|   499           0.00195       -0.01562        0.07812        0.00000
 BRILLOUIN|   500           0.00195       -0.01562        0.10938        0.00000
 BRILLOUIN|   501           0.00195       -0.01562        0.14062        0.00000
 BRILLOUIN|   502           0.00195       -0.01562        0.17188        0.00000
 BRILLOUIN|   503           0.00195       -0.01562        0.20312        0.00000
 BRILLOUIN|   504           0.00195       -0.01562        0.23438        0.00000
 BRILLOUIN|   505           0.00195       -0.01562        0.26562        0.00000
 BRILLOUIN|   506           0.00195       -0.01562        0.29688        0.00000
 BRILLOUIN|   507           0.00195       -0.01562        0.32812        0.00000
 BRILLOUIN|   508           0.00195       -0.01562        0.35938        0.00000
 BRILLOUIN|   509           0.00195       -0.01562        0.39062        0.00000
 BRILLOUIN|   510           0.00195       -0.01562        0.42188        0.00000
 BRILLOUIN|   511           0.00195       -0.01562        0.45312        0.00000
 BRILLOUIN|   512           0.00195       -0.01562        0.48438        0.00000
 *******************************************************************************

 *******************************************************************************
 *******************************************************************************
 **                                                                           **
 **     #####                         ##              ##                      **
 **    ##   ##            ##          ##              ##                      **
 **   ##     ##                       ##            ######                    **
 **   ##     ##  ##   ##  ##   #####  ##  ##   ####   ##    #####    #####    **
 **   ##     ##  ##   ##  ##  ##      ## ##   ##      ##   ##   ##  ##   ##   **
 **   ##  ## ##  ##   ##  ##  ##      ####     ###    ##   ######   ######    **
 **    ##  ###   ##   ##  ##  ##      ## ##      ##   ##   ##       ##        **
 **     #######   #####   ##   #####  ##  ##  ####    ##    #####   ##        **
 **           ##                                                    ##        **
 **                                                                           **
 **                                                ... make the atoms dance   **
 **                                                                           **
 **            Copyright (C) by CP2K developers group (2000-2025)             **
 **                      J. Chem. Phys. 152, 194103 (2020)                    **
 **                                                                           **
 *******************************************************************************

 DFT| Spin restricted Kohn-Sham (RKS) calculation                            RKS
 DFT| Multiplicity                                                             1
 DFT| Number of spin states                                                    1
 DFT| Charge                                                                   0
 DFT| Self-interaction correction (SIC)                                       NO
 DFT| Cutoffs: density                                              1.000000E-10
 DFT|          gradient                                             1.000000E-10
 DFT|          tau                                                  1.000000E-10
 DFT|          cutoff_smoothing_range                               0.000000E+00
 DFT| XC density smoothing                                                  NONE
 DFT| XC derivatives                                                          PW

 FUNCTIONAL| PBE:
 FUNCTIONAL| J.P.Perdew, K.Burke, M.Ernzerhof, Phys. Rev. Letter, vol. 77, n 18,
 FUNCTIONAL|  pp. 3865-3868, (1996) {spin unpolarized}                          


 QS| Method:                                                                GAPW
 QS| Density plane wave grid type                        NON-SPHERICAL FULLSPACE
 QS| Number of grid levels:                                                    4
 QS| Density cutoff [a.u.]:                                                250.0
 QS| Multi grid cutoff [a.u.]: 1) grid level                               250.0
 QS|                           2) grid level                                83.3
 QS|                           3) grid level                                27.8
 QS|                           4) grid level                                 9.3
 QS| Grid level progression factor:                                          3.0
 QS| Relative density cutoff [a.u.]:                                        50.0
 QS| Interaction thresholds: eps_pgf_orb:                                1.0E-12
 QS|                         eps_filter_matrix:                          0.0E+00
 QS|                         eps_core_charge:                            1.0E-14
 QS|                         eps_rho_gspace:                             1.0E-12
 QS|                         eps_rho_rspace:                             1.0E-12
 QS|                         eps_gvg_rspace:                             1.0E-06
 QS|                         eps_ppl:                                    1.0E-02
 QS|                         eps_ppnl:                                   1.0E-08
 QS| GAPW|      One center basis from orbital basis primitives
 QS| GAPW|                   eps_fit:                                    1.0E-04
 QS| GAPW|                   eps_iso:                                    1.0E-12
 QS| GAPW|                   eps_svd:                                    1.0E-08
 QS| GAPW|                   eps_cpc:                                    1.0E-12
 QS| GAPW|   atom-r-grid: quadrature:                                     GC_LOG
 QS| GAPW|      atom-s-grid:  max l :                                          4
 QS| GAPW|      max_l_rho0 :                                                   2
 QS| GAPW|      At least one kind is NOT PAW, i.e. it has only soft AO 
 QS| GAPW|      The NOT PAW atoms are treated fully GPW


 ATOMIC KIND INFORMATION

  1. Atomic kind: W                                     Number of atoms:       1

     Orbital Basis Set                                         SZV-MOLOPT-SR-GTH

       Number of orbital shell sets:                                           1
       Number of orbital shells:                                               4
       Number of primitive Cartesian functions:                                6
       Number of Cartesian basis functions:                                   11
       Number of spherical basis functions:                                   10
       Norm type:                                                              2

       Normalised Cartesian orbitals:

                        Set   Shell   Orbital            Exponent    Coefficient

                          1       1    2s                3.103254       0.529378
                                                         2.893835       0.343543
                                                         1.106151      -0.674409
                                                         0.501100      -0.158409
                                                         0.214447      -0.013622
                                                         0.074663      -0.014288

                          1       2    3s                3.103254      -0.097470
                                                         2.893835       0.569553
                                                         1.106151      -0.477566
                                                         0.501100      -0.211692
                                                         0.214447       0.068377
                                                         0.074663       0.097560

                          1       3    3px               3.103254       6.695543
                                                         2.893835      -5.556394
                                                         1.106151      -0.965855
                                                         0.501100      -0.267354
                                                         0.214447      -0.010443
                                                         0.074663       0.000342
                          1       3    3py               3.103254       6.695543
                                                         2.893835      -5.556394
                                                         1.106151      -0.965855
                                                         0.501100      -0.267354
                                                         0.214447      -0.010443
                                                         0.074663       0.000342
                          1       3    3pz               3.103254       6.695543
                                                         2.893835      -5.556394
                                                         1.106151      -0.965855
                                                         0.501100      -0.267354
                                                         0.214447      -0.010443
                                                         0.074663       0.000342

                          1       4    4dx2              3.103254      -0.912708
                                                         2.893835       1.052044
                                                         1.106151       0.570193
                                                         0.501100       0.198591
                                                         0.214447       0.042391
                                                         0.074663       0.002139
                          1       4    4dxy              3.103254      -1.580857
                                                         2.893835       1.822194
                                                         1.106151       0.987603
                                                         0.501100       0.343970
                                                         0.214447       0.073424
                                                         0.074663       0.003705
                          1       4    4dxz              3.103254      -1.580857
                                                         2.893835       1.822194
                                                         1.106151       0.987603
                                                         0.501100       0.343970
                                                         0.214447       0.073424
                                                         0.074663       0.003705
                          1       4    4dy2              3.103254      -0.912708
                                                         2.893835       1.052044
                                                         1.106151       0.570193
                                                         0.501100       0.198591
                                                         0.214447       0.042391
                                                         0.074663       0.002139
                          1       4    4dyz              3.103254      -1.580857
                                                         2.893835       1.822194
                                                         1.106151       0.987603
                                                         0.501100       0.343970
                                                         0.214447       0.073424
                                                         0.074663       0.003705
                          1       4    4dz2              3.103254      -0.912708
                                                         2.893835       1.052044
                                                         1.106151       0.570193
                                                         0.501100       0.198591
                                                         0.214447       0.042391
                                                         0.074663       0.002139

     RI Auxiliary Basis Set             RI_aug-SZV-MOLOPT-GTH_N_RI_076_s_p_d_f_g

       Number of orbital shell sets:                                          18
       Number of orbital shells:                                              18
       Number of primitive Cartesian functions:                               18
       Number of Cartesian basis functions:                                  107
       Number of spherical basis functions:                                   76
       Norm type:                                                              2

       Normalised Cartesian orbitals:

                        Set   Shell   Orbital            Exponent    Coefficient

                          1       1    1s                0.189053       0.204337

                          2       1    7px               0.264845       0.270819
                          2       1    7py               0.264845       0.270819
                          2       1    7pz               0.264845       0.270819

                          3       1   11dx2              0.294055       0.193268
                          3       1   11dxy              0.294055       0.334750
                          3       1   11dxz              0.294055       0.334750
                          3       1   11dy2              0.294055       0.193268
                          3       1   11dyz              0.294055       0.334750
                          3       1   11dz2              0.294055       0.193268

                          4       1   16gx4              0.336043       0.055465
                          4       1   16gx3y             0.336043       0.146747
                          4       1   16gx3z             0.336043       0.146747
                          4       1   16gx2y2            0.336043       0.189449
                          4       1   16gx2yz            0.336043       0.328136
                          4       1   16gx2z2            0.336043       0.189449
                          4       1   16gxy3             0.336043       0.146747
                          4       1   16gxy2z            0.336043       0.328136
                          4       1   16gxyz2            0.336043       0.328136
                          4       1   16gxz3             0.336043       0.146747
                          4       1   16gy4              0.336043       0.055465
                          4       1   16gy3z             0.336043       0.146747
                          4       1   16gy2z2            0.336043       0.189449
                          4       1   16gyz3             0.336043       0.146747
                          4       1   16gz4              0.336043       0.055465

                          5       1    2s                0.362163       0.332727

                          6       1   14fx3              0.426326       0.216209
                          6       1   14fx2y             0.426326       0.483457
                          6       1   14fx2z             0.426326       0.483457
                          6       1   14fxy2             0.426326       0.483457
                          6       1   14fxyz             0.426326       0.837372
                          6       1   14fxz2             0.426326       0.483457
                          6       1   14fy3              0.426326       0.216209
                          6       1   14fy2z             0.426326       0.483457
                          6       1   14fyz2             0.426326       0.483457
                          6       1   14fz3              0.426326       0.216209

                          7       1   18hx5              0.587886       0.131992
                          7       1   18hx4y             0.587886       0.395975
                          7       1   18hx4z             0.587886       0.395975
                          7       1   18hx3y2            0.587886       0.604862
                          7       1   18hx3yz            0.587886       1.047651
                          7       1   18hx3z2            0.587886       0.604862
                          7       1   18hx2y3            0.587886       0.604862
                          7       1   18hx2y2z           0.587886       1.352512
                          7       1   18hx2yz2           0.587886       1.352512
                          7       1   18hx2z3            0.587886       0.604862
                          7       1   18hxy4             0.587886       0.395975
                          7       1   18hxy3z            0.587886       1.047651
                          7       1   18hxy2z2           0.587886       1.352512
                          7       1   18hxyz3            0.587886       1.047651
                          7       1   18hxz4             0.587886       0.395975
                          7       1   18hy5              0.587886       0.131992
                          7       1   18hy4z             0.587886       0.395975
                          7       1   18hy3z2            0.587886       0.604862
                          7       1   18hy2z3            0.587886       0.604862
                          7       1   18hyz4             0.587886       0.395975
                          7       1   18hz5              0.587886       0.131992

                          8       1    8px               0.682676       0.884522
                          8       1    8py               0.682676       0.884522
                          8       1    8pz               0.682676       0.884522

                          9       1    3s                0.703338       0.547372

                         10       1   12dx2              0.951478       1.508716
                         10       1   12dxy              0.951478       2.613172
                         10       1   12dxz              0.951478       2.613172
                         10       1   12dy2              0.951478       1.508716
                         10       1   12dyz              0.951478       2.613172
                         10       1   12dz2              0.951478       1.508716

                         11       1    4s                1.374073       0.904518

                         12       1    9px               1.433082       2.235007
                         12       1    9py               1.433082       2.235007
                         12       1    9pz               1.433082       2.235007

                         13       1   17gx4              1.644487       4.370379
                         13       1   17gx3y             1.644487      11.562936
                         13       1   17gx3z             1.644487      11.562936
                         13       1   17gx2y2            1.644487      14.927687
                         13       1   17gx2yz            1.644487      25.855512
                         13       1   17gx2z2            1.644487      14.927687
                         13       1   17gxy3             1.644487      11.562936
                         13       1   17gxy2z            1.644487      25.855512
                         13       1   17gxyz2            1.644487      25.855512
                         13       1   17gxz3             1.644487      11.562936
                         13       1   17gy4              1.644487       4.370379
                         13       1   17gy3z             1.644487      11.562936
                         13       1   17gy2z2            1.644487      14.927687
                         13       1   17gyz3             1.644487      11.562936
                         13       1   17gz4              1.644487       4.370379

                         14       1   13dx2              1.953966       5.315134
                         14       1   13dxy              1.953966       9.206082
                         14       1   13dxz              1.953966       9.206082
                         14       1   13dy2              1.953966       5.315134
                         14       1   13dyz              1.953966       9.206082
                         14       1   13dz2              1.953966       5.315134

                         15       1   15fx3              1.985402       6.888323
                         15       1   15fx2y             1.985402      15.402759
                         15       1   15fx2z             1.985402      15.402759
                         15       1   15fxy2             1.985402      15.402759
                         15       1   15fxyz             1.985402      26.678360
                         15       1   15fxz2             1.985402      15.402759
                         15       1   15fy3              1.985402       6.888323
                         15       1   15fy2z             1.985402      15.402759
                         15       1   15fyz2             1.985402      15.402759
                         15       1   15fz3              1.985402       6.888323

                         16       1    5s                2.669436       1.488417

                         17       1   10px               3.574197       7.005080
                         17       1   10py               3.574197       7.005080
                         17       1   10pz               3.574197       7.005080

                         18       1    6s                5.178021       2.446431

       Atomic covalent radius [Angstrom]:                                  1.300

       Atomic van der Waals radius [Angstrom]:                             1.670

     GTH Potential information for                                   GTH-PBE-q14

       Description:                       Goedecker-Teter-Hutter pseudopotential
                                           Goedecker et al., PRB 54, 1703 (1996)
                                          Hartwigsen et al., PRB 58, 3641 (1998)
                                                      Krack, TCA 114, 145 (2005)

       Gaussian exponent of the core charge distribution:               1.714678
       Electronic configuration (s p d ...):                           4   6   4

       Parameters of the local part of the GTH pseudopotential:

                          rloc        C1          C2          C3          C4
                        0.540000   13.414811   -2.213456

       Parameters of the non-local part of the GTH (SOC) pseudopotential:

                   l      r(l)      h(i,j,l)
                                    k(i,j,l)
                   0    0.397028   -4.141211    3.835423    2.233179
                                    3.835423   -1.319244   -5.766044
                                    2.233179   -5.766044    4.576656
                   1    0.353531   -7.456236    8.112326    0.000000
                                    8.112326   -9.598634    0.000000
                                    0.000000    0.000000    0.000000
                                    1.424856   -0.047910   -0.233482
                                   -0.047910   -0.332024    0.552519
                                   -0.233482    0.552519   -0.392678
                   2    0.412107   -0.954661   -1.067446
                                   -1.067446    1.210370
                                    0.070160    0.013189
                                    0.013189   -0.014954

  2. Atomic kind: S                                     Number of atoms:       2

     Orbital Basis Set                                            SZV-MOLOPT-GTH

       Number of orbital shell sets:                                           1
       Number of orbital shells:                                               2
       Number of primitive Cartesian functions:                                6
       Number of Cartesian basis functions:                                    4
       Number of spherical basis functions:                                    4
       Norm type:                                                              2

       Normalised Cartesian orbitals:

                        Set   Shell   Orbital            Exponent    Coefficient

                          1       1    2s                3.817591       0.157264
                                                         2.362752      -0.510082
                                                         0.861004      -0.067545
                                                         0.417525       0.341507
                                                         0.181514       0.065073
                                                         0.070571       0.000166

                          1       2    3px               3.817591      -0.172386
                                                         2.362752      -0.175607
                                                         0.861004       0.224215
                                                         0.417525       0.286358
                                                         0.181514       0.049699
                                                         0.070571       0.001588
                          1       2    3py               3.817591      -0.172386
                                                         2.362752      -0.175607
                                                         0.861004       0.224215
                                                         0.417525       0.286358
                                                         0.181514       0.049699
                                                         0.070571       0.001588
                          1       2    3pz               3.817591      -0.172386
                                                         2.362752      -0.175607
                                                         0.861004       0.224215
                                                         0.417525       0.286358
                                                         0.181514       0.049699
                                                         0.070571       0.001588

     RI Auxiliary Basis Set             RI_aug-SZV-MOLOPT-GTH-SR_N_RI_030_s_p_d_

       Number of orbital shell sets:                                          10
       Number of orbital shells:                                              10
       Number of primitive Cartesian functions:                               10
       Number of Cartesian basis functions:                                   35
       Number of spherical basis functions:                                   30
       Norm type:                                                              2

       Normalised Cartesian orbitals:

                        Set   Shell   Orbital            Exponent    Coefficient

                          1       1    1s                0.220870       0.229621

                          2       1    8dx2              0.302875       0.203527
                          2       1    8dxy              0.302875       0.352518
                          2       1    8dxz              0.302875       0.352518
                          2       1    8dy2              0.302875       0.203527
                          2       1    8dyz              0.302875       0.352518
                          2       1    8dz2              0.302875       0.203527

                          3       1    5px               0.375262       0.418657
                          3       1    5py               0.375262       0.418657
                          3       1    5pz               0.375262       0.418657

                          4       1    2s                0.528149       0.441547

                          5       1   10fx3              0.572308       0.419393
                          5       1   10fx2y             0.572308       0.937792
                          5       1   10fx2z             0.572308       0.937792
[...]
 build_2c_coulomb_matrix_kp_sma       2  9.0    2.490    2.803 1633.157 1633.187
 build_2c_coulomb_matrix_kp_sma  655360 10.0 1236.569 1296.519 1236.569 1296.519
 compute_Sigma_c                      1  7.0    0.001    0.001 1055.148 1055.192
 mp_sync                        ******* 12.2  706.591  987.688  706.591  987.688
 dbt_total                      3350120  9.6    3.047    5.224  484.603  851.897
 copy_dbcsr_to_fm                286697  8.0    1.550    1.719  767.138  768.919
 dbt_contract                   1355525 10.3    6.349   11.271  434.354  766.599
 compute_chi                          1  7.0    0.010    0.028  747.867  747.950
 dbcsr_complete_redistribute     508704  9.6    9.911   14.037  697.308  743.016
 scf_env_do_scf                       1  3.0    0.001    0.002  736.398  736.401
 scf_env_do_scf_inner_loop           74  4.0    0.010    0.014  736.397  736.401
 qs_scf_new_mos_kp                   74  5.0    0.000    0.001  728.354  728.410
 do_general_diag_kp                  74  6.0    0.361    0.378  728.354  728.409
 dbt_tas_multiply               1577126 12.9    0.780    1.448  392.423  701.809
 dbt_tas_total                  1577126 13.9   33.074   59.754  391.927  700.895
 dbcsr_desymmetrize_deep         452313  8.3    4.577    5.335  601.266  603.291
 mp_alltoall_d11v               2883051 10.4  487.965  489.545  487.965  489.545
 G_occ_vir                          121  8.0    0.269    0.309  483.607  484.639
 mp_alltoall_i11v               1978425 10.3  475.666  475.758  475.666  475.758
 fm_to_local_tensor              146072  9.0    2.406    2.704  410.616  410.632
 copy_fm_to_dbcsr                222007  9.3    0.505    0.527  321.970  367.791
 parallel_gemm_cfm               280952  8.9    0.159    0.197  347.335  351.808
 parallel_gemm_cfm_cosma         280952  9.9  347.175  351.654  347.175  351.654
 local_dbt_to_global_fm              91  8.0    0.147    0.165  309.175  309.196
 dbt_tas_estimate_result_nze     788563 13.4   17.468   32.902  160.675  287.663
 contract_to_Sigma                   82  8.0    4.362    5.323  158.803  278.711
 mp_alltoall_i22                 961017 10.0  229.729  276.046  229.729  276.046
 contract_M_occ_vir_to_chi           48  8.0    7.884   10.218   94.400  234.661
 hybrid_alltoall_any             452313  9.3    1.261    1.298  226.772  227.290
 add_V_L                         327680 10.0    3.509  227.161    3.509  227.161
 contract_W                          43  8.0    1.420    2.308  150.437  214.891
 compute_QP_energies                  1  7.0    0.049    0.079  213.787  213.811
 trafo_to_k_and_nn                71492  8.0    0.206    0.265  213.648  213.677
 global_matrix_to_local_matrix   146072 10.0    2.223    3.399  161.411  175.334
 reshape_mm_small               1577126 14.9   53.793   95.570  100.168  171.442
 G_times_3c                        9264  8.0    1.849    2.836  109.772  164.349
 dbt_tas_dbm                    1577126 14.9    0.691    1.162   85.263  160.834
 contract_to_Sigma_3c_x_G        269059  9.0    0.223    0.349  103.456  159.142
 dbm_multiply                   1577126 16.9   83.789  158.201   83.789  158.201
 mp_sum_dm                       655433 10.0  116.894  130.653  116.894  130.653
 fm_MWM_R_t_to_local_tensor_W_R      30  8.0    0.020    0.023  130.550  130.554
 fm_to_local_array                  934  8.1   35.066   36.514  125.685  125.819
 kpoint_density_transform            74  7.0    0.113    0.118  123.506  123.518
 get_V_tr_R                          34  9.0    0.083    0.090  117.989  118.047
 mult_W_with_Minv                    30  8.0    0.439    0.451  112.850  112.901
 contract_to_Sigma_contract        8299  9.0    1.546    2.224   49.358  112.104
 mp_waitall_1                   1593830 11.1   93.506  109.376   93.506  109.376
 send_data                       146072 11.0    0.092    0.103   94.156  108.911
 communicate_buffer              146072 12.0    1.662   20.486   94.063  108.816
 dbt_tas_create_split           4754938 15.8    1.595    2.770   56.578   98.880
 dbt_tas_create_split_rows_or_c 4754938 16.8    5.761   10.146   54.983   96.193
 mp_sum_dm3                        1069  9.0   90.923   92.481   90.923   92.481
 dbt_copy                       2117113 10.9    5.142    8.635   53.922   90.194
 reshape_mm_compatible          1577126 14.9    7.407   13.476   50.709   89.174
 add_rs_to_ikp                  *******  9.9   82.062   85.752   82.062   85.752
 dbt_tas_mm_2                    619038 15.9    0.227    0.590   30.510   79.876
 trafo_rs_to_ikp                   5368  8.1    2.102    2.368   74.597   78.128
 add_ikp_to_rs                  ******* 10.0   70.454   76.656   70.454   76.656
 dbt_tas_distribution_new       3936478 15.3   23.054   37.179   44.543   72.107
 mp_cart_create                 8067077 16.0   48.751   65.791   51.336   70.002
 local_dbt_to_global_mat          87451  9.0    0.299    0.318   53.242   63.079
 add_ikp_to_all_rs                 4924  8.0    1.873    2.158   55.606   61.693
 change_split                   2120653 15.4    2.427    4.475   32.938   60.414
 cp_fm_start_copy_general        227328  7.3    0.958    1.721   59.522   59.681
 dbt_reshape                    1284734 11.7   25.040   42.035   34.817   58.428
 dbt_tas_reshape                1822162 15.4    4.874    8.138   33.834   55.001
 fm_add_ikp_to_rs                123904  9.0   35.609   36.797   52.341   54.532
 mp_allgather_i                  454656  8.3   52.532   53.277   52.532   53.277
 dbt_tas_mm_3T                   595390 16.1    0.228    0.352   36.005   53.098
 rsmat_to_kp                       7032  7.2    0.050    0.053   52.874   52.970
 mp_sum_i                       1478168 15.3   48.916   49.309   48.916   49.309
 send_sizes_1                    146072 11.0    0.083    0.090   48.729   49.219
 get_data                        146072 11.0    4.936   48.783    5.151   49.013
 dbt_tas_replicate              1577126 14.9   14.144   21.956   28.929   46.571
 compute_Sigma_x                      1  7.0    0.002    0.002   44.826   44.862
 mp_cart_sub                     573473 10.0   43.137   43.226   43.137   43.226
 get_t_3c_int                    938374  9.3    1.624    2.470   27.779   41.840
 create_and_init_bs_env_for_gw        1  6.0    0.007    0.012   40.779   40.821
 dos_pdos_ldos                        1  5.0    0.004    0.006   37.853   37.914
 fm_trafo_rs_to_ikp               71492  9.0   20.845   21.924   30.413   34.771
 dbt_remap                       122518 11.0    8.268   11.876   22.968   32.989
 mp_comm_dup                    3966379 18.3   16.610   29.745   17.765   31.777
 power                            10204  8.0    2.074    2.237   29.486   30.445
 SOC_ev                            2344  6.0    0.012    0.014   30.343   30.409
 diag_complex                     10204  9.0   27.412   28.269   27.412   28.269
 dbt_tas_mm_1N                   362698 15.5    0.126    0.199   17.909   26.848
 soc                                  1  5.0    0.000    0.000   26.368   26.372
 H_KS_spinor_kp                       1  6.0    0.007    0.008   26.353   26.360
 create_and_init_bs_env               1  5.0    0.000    0.001   24.846   24.849
 compute_cfm_mo_coeff_kp_and_ei       1  6.0    0.002    0.003   24.839   24.839
 convert_to_new_pgrid           4731378 14.9    4.980    9.060   13.281   23.997
 local_matrix_to_global_matrix    87451 10.0    0.163    0.174   13.768   23.906
 dbcsr_finalize                 1939943 10.9    3.726    4.376   19.371   22.908
 mp_comm_free                   ******* 14.9   14.064   22.685   14.064   22.685
 dbm_reserve_blocks             7258320 16.4   13.396   22.648   13.396   22.648
 dbt_tas_reserve_blocks_index   5681194 15.6    2.392    3.900   13.566   22.574
 mp_sum_dv                        78751  8.9   17.917   22.284   17.917   22.284
 mp_comm_split_direct           4754942 17.8   11.546   20.283   12.369   21.719
 cp_cfm_heevd                      4836  7.5    0.003    0.003   20.168   20.315
 cp_cfm_heevd_base                 4836  8.5   20.165   20.312   20.165   20.312
 dbt_tas_reshape_buffer_fill    1822162 16.4   12.383   19.911   12.383   19.911
 compute_3c_integrals                 1  7.0    0.035    0.044   19.758   19.771
 build_3c_integrals                   1  8.0   17.417   18.732   18.270   19.565
 dbt_tas_reshape_buffer_obtain  1822162 16.4    7.206   12.123   11.050   18.470
 dbt_permute_index              3527905 12.1    8.595   15.038    9.772   17.186
 dbt_distribution_new_expert     537190 11.9    2.414    2.843   14.173   16.691
 dbt_tas_create_new             6033572 15.1    9.085   15.799    9.085   15.799
 dbt_create_matrix               146072 10.0    0.832    0.861   14.896   15.711
 dbt_tas_merge                   619038 14.9    4.366   11.793    5.843   15.673
 dbm_copy                       3154252 15.9    8.301   15.270    8.301   15.270
 mp_alltoall_i                  6202282 15.0   13.164   14.532   13.164   14.532
 dbt_align_index                2365689 11.4    1.274    2.314    7.599   13.538
 reshape_mm_template             245036 15.5    5.863    8.367    8.923   12.778
 get_Minv_Vtr_Minv_R                  1  8.0    0.019    0.021   12.634   12.643
 trafo_V_xc_R_to_kp                   1  7.0    0.004    0.005   12.424   12.428
 dbcsr_merge_all                 736074 11.7    7.452    9.046    9.982   11.813
 dbcsr_filter_anytype            658353 11.0    1.508    1.575    8.204   11.741
 dbt_destroy                    6246850 10.1    9.127   10.565   10.018   11.598
 dbt_tas_reserve_blocks_templat 2198941 14.0    2.239    3.763    7.103   11.436
 dbt_tas_mp_comm                 911081 13.0    0.759    1.336    6.376   11.146
 add_R                          *******  9.3    6.956    7.818    9.711   10.958
 dbt_tas_copy                    621815 12.2    4.607    6.594    7.480   10.587
 dbt_reserve_blocks_index       1660091 13.4    0.943    1.550    6.050   10.433
 dbt_reserve_blocks_index_array 1495298 12.8    0.612    1.084    5.433   10.147
 dbt_create_3c_R1_R2                 62  8.0    2.006    2.237    9.286    9.700
 destroy_t_2d                        62  8.0    2.065    2.739    7.802    9.333
 set_blocks                       87451 11.0    1.977    4.731    4.023    9.308
 dbt_create_new                  268595 11.4    1.510    1.839    7.503    8.938
 dbt_create_template            2450350  9.0    7.788    8.151    7.788    8.151
 mp_cart_get                    ******* 15.9    4.532    8.007    4.532    8.007
 send_sizes_2                    146072 11.0    0.080    0.088    7.242    7.516
 mp_isend_dv                    ******* 12.2    0.390    7.417    0.390    7.417
 compute_proj_mo_on_kind           1172  6.0    0.013    0.016    7.276    7.359
 dbt_communicate_buffer         1284734 12.7    4.328    7.348    4.328    7.348
 dbm_add                        1577126 14.9    4.302    7.268    4.302    7.268
 mp_comm_size                   ******* 16.1    4.070    7.244    4.070    7.244
 dbt_copy_nocomm                 210564 11.0    1.712    4.730    2.599    7.156
 mp_isend_im2                   ******* 13.0    0.256    7.036    0.256    7.036
 cp_cfm_geeig_canon                1172  7.0    0.004    0.005    6.757    6.764
 is_cell_in_index_to_cell       *******  9.7    4.873    6.495    4.873    6.495
 mp_comm_rank                   ******* 16.1    3.136    6.180    3.136    6.180
 dbt_pgrid_create_expert         537193 12.9    0.535    0.643    4.841    5.848
 heuristic_RI_regularization          1  7.0    0.000    0.001    5.840    5.841
 dbt_tas_communicate_buffer     3399288 17.2    2.723    5.462    2.723    5.462
 rskp_transform                   82808  7.1    0.131    5.285    0.131    5.285
 dbm_filter                     2478449 14.7    2.930    5.283    2.930    5.283
 dbcsr_create_new               1667355  9.8    3.632    4.291    4.539    5.211
 dbcsr_work_create              1188387 10.2    3.185    3.693    4.574    5.134
 comm_data                        87451 11.0    0.168    0.940    1.288    5.082
 comm_size                        87451 11.0    0.077    0.084    4.759    5.050
 dbcsr_iterator_start           4224853 10.8    3.783    3.966    4.554    4.751
 dbt_nd_mp_comm                  268590 11.4    0.309    0.376    3.840    4.722
 mp_bcast_iv                     909420  8.3    4.073    4.313    4.073    4.313
 dbt_tas_reshape_communicate_bu 1822162 16.4    0.609    1.226    2.326    4.216
 mp_waitall_2                    174902 12.0    1.061    3.847    1.061    3.847
 copy_fm_to_dbcsr_bc             222007 10.3    1.026    1.076    3.612    3.739
 dbcsr_work_destroy_all         1188387 11.1    2.224    2.625    3.200    3.738
 fill_buffer                      87451 11.0    2.374    3.304    2.500    3.431
 mp_sum_l                       9171142 15.0    1.881    3.416    1.881    3.416
 dbcsr_data_release             ******* 11.7    2.919    3.253    2.919    3.253
 qs_ks_update_qs_env                 74  5.0    0.000    0.000    3.188    3.229
 dbt_tas_reshape_get_coord      1822162 16.4    1.762    3.127    1.762    3.127
 dbm_scale                      2097081 14.3    1.673    3.017    1.673    3.017
 reserve_blocks                  146072 11.0    0.351    0.378    2.325    2.945
 build_2c_integrals                  34 10.0    0.054    1.538    0.368    2.924
 dbcsr_iterator_stop            4224853 10.8    2.188    2.314    2.731    2.862
 qs_ks_build_kohn_sham_matrix        77  7.0    0.020    0.023    2.816    2.859
 dbcsr_data_new                 ******* 11.1    2.598    2.761    2.598    2.761
 rebuild_ks_matrix                   74  6.0    0.000    0.000    2.713    2.754
 dbcsr_destroy                  1555418  9.6    1.315    1.379    2.571    2.667
 dbt_copy_matrix_to_tensor       146072 10.0    0.857    0.900    2.548    2.615
 dbt_create_2c_R                     98  8.0    1.281    2.251    1.590    2.551
 dbt_reserve_blocks_template     210564 12.0    0.153    0.441    0.887    2.457
 transform_dmat                   37888  8.0    0.056    2.436    0.056    2.436
 transfer_rs2pw                     379  8.4    0.002    0.003    2.045    2.186
 write_kpoints_restart               74  5.0    0.002    0.193    2.146    2.174
 transfer_pw2rs                     386 10.6    0.002    0.003    2.055    2.124
 qs_rho_update_rho_low               75  5.0    0.001    0.001    2.055    2.060
 calculate_rho_elec                  75  6.0    0.002    0.003    2.053    2.055
 dbt_tas_replicate_communicate_  958088 15.9    0.374    0.575    1.117    2.046
 transfer_rs2pw_250                 154 10.0    0.137    0.159    1.885    2.022
 mp_sendrecv_dv                   96645 10.4    1.866    2.015    1.866    2.015
 sum_up_and_integrate                77  8.0    0.004    0.008    0.619    2.012
 integrate_v_rspace                  77  9.0    0.001    0.005    0.615    2.011
 transfer_pw2rs_250                 155 11.0    0.126    0.143    1.833    1.908
 mp_bcast_im                     454656  8.3    1.681    1.906    1.681    1.906
 dbt_tas_reshape_alltoall       1822162 16.4    0.554    0.973    1.038    1.798
 density_rs2pw                       75  7.0    0.001    0.002    1.741    1.794
 dbcsr_reserve_blocks            592389 12.2    0.989    1.422    1.247    1.753
 tree_to_linear_d                587997 12.6    1.515    1.688    1.515    1.688
 integrate_vhg0_rspace               77  8.0    0.001    0.001    1.589    1.651
 dbcsr_set                      1575369 10.4    0.747    0.849    1.382    1.603
 copy_dbcsr_to_fm_bc             286697  9.0    0.714    0.769    1.528    1.583
 dbt_distribution_destroy        537190 11.9    0.979    1.212    1.234    1.508
 mp_bcast_i                     4755441 17.8    0.800    1.508    0.800    1.508
 grid_collocate_task_list            75  7.0    0.306    1.444    0.306    1.444
 quick_finalize                  452313 10.3    0.662    0.851    1.083    1.437
 grid_integrate_task_list            77 10.0    0.024    1.414    0.024    1.414
 dbt_reserve_blocks_matrix_to_t  146072 11.0    0.403    0.425    1.352    1.393
 dbt_tas_merge_communicate_buff  619038 15.9    0.142    0.366    0.406    1.389
 mp_dims_create                 3936475 14.0    0.787    1.389    0.787    1.389
 mp_cart_rank                   3833200 15.9    0.892    1.357    0.892    1.357
 get_coord                        87451 11.0    0.603    0.668    1.035    1.350
 write_SOC_eigenvalues              148  6.0    0.005    1.228    0.005    1.228
 fill_mat_local                  146072 11.0    0.853    1.001    1.028    1.178
 compute_V_xc                         1  7.0    0.000    0.000    1.139    1.141
 dbcsr_reserve_all_blocks        309458 11.5    0.245    0.264    0.810    1.134
 dbcsr_copy                      187872 10.1    0.366    0.473    0.906    1.133
 ab_contract                    1561032 11.0    0.014    1.082    0.014    1.082
 dbt_copy_tensor_to_matrix        87451 10.0    0.289    0.382    0.907    1.036
 analyt_conti_and_print            1172  8.0    0.006    0.981    0.054    1.024
 dbcsr_distribution_new          508743 10.0    0.700    0.954    0.700    0.954
 dbcsr_iterator_seek            4224853 11.8    0.771    0.906    0.771    0.906
 dbt_tas_replicate_alltoall      958088 15.9    0.321    0.500    0.549    0.873
 mp_sum_iv                         2368  9.0    0.507    0.872    0.507    0.872
 dbt_buffer_get_index           3399288 16.7    0.480    0.864    0.480    0.864
 dbcsr_zero                     1575369 11.4    0.635    0.839    0.635    0.839
 setup_parallelization_Delta_R        1  7.0    0.000    0.000    0.805    0.806
 compute_n_tensor_ops_Delta_R         1  8.0    0.167    0.360    0.802    0.802
 mp_max_i                       2711513 11.3    0.417    0.746    0.417    0.746
 alloc_block_3c                       1  9.0    0.160    0.167    0.677    0.732
 add_to_DOS_PDOS                   4688  6.5    0.633    0.727    0.633    0.727
 create_qs_kind_set                   1  2.0    0.000    0.001    0.656    0.706
 read_qs_kind                         2  3.0    0.228    0.242    0.656    0.706
 dbcsr_sort_indices             1194531 12.6    0.360    0.702    0.360    0.702
 add_cfm_submat                   11720  7.0    0.044    0.045    0.507    0.695
 dbt_tas_merge_alltoall          619038 15.9    0.146    0.393    0.259    0.675
 local_array_to_fm                  901  8.0    0.204    0.637    0.204    0.637
 cp_fm_to_fm_submat               23440  8.0    0.447    0.634    0.447    0.634
 dbcsr_make_index_exist         1667355 10.8    0.575    0.612    0.575    0.612
 setup_cells_3c                       1  7.0    0.014    0.019    0.601    0.604
 potential_pw2rs                     77 10.0    0.001    0.001    0.590    0.596
 build_3c_integral_block           2888  8.0    0.208    0.441    0.565    0.587
 mp_irecv_im2                   2764844 13.0    0.243    0.559    0.243    0.559
 fft_wrap_pw1pw2                   1443 10.1    0.005    0.005    0.527    0.552
 get_sizes                       146072 11.0    0.346    0.378    0.509    0.543
 dbcsr_copy_into_existing         75935 10.0    0.204    0.307    0.420    0.532
 cp_fm_write_unformatted            636  6.0    0.457    0.521    0.457    0.526
 -------------------------------------------------------------------------------

 The number of warnings for this run is : 1
 
 -------------------------------------------------------------------------------
  **** **** ******  **  PROGRAM ENDED AT                 2025-07-18 18:27:14.580
 ***** ** ***  *** **   PROGRAM RAN ON                                  n2cn0607
 **    ****   ******    PROGRAM RAN BY                                  metdyn02
 ***** **    ** ** **   PROGRAM PROCESS ID                                555155
  **** **  *******  **  PROGRAM STOPPED IN /scratch/hpc-prf-metdyn/metdyn02_Remi
                                           /05_TMD_new/3_WS2__/SZVnonaug
