 DBCSR| CPU Multiplication driver                                           XSMM (U)
 DBCSR| Multrec recursion limit                                              512 (U)
 DBCSR| Multiplication stack size                                           1000 (D)
 DBCSR| Maximum elements for images                                    UNLIMITED (U)
 DBCSR| Multiplicative factor virtual images                                   1 (U)
 DBCSR| Use multiplication densification                                       T (D)
 DBCSR| Multiplication size stacks                                             3 (U)
 DBCSR| Use memory pool for CPU allocation                                     F (U)
 DBCSR| Number of 3D layers                                               SINGLE (U)
 DBCSR| Use MPI memory allocation                                              F (U)
 DBCSR| Use RMA algorithm                                                      F (U)
 DBCSR| Use Communication thread                                               T (U)
 DBCSR| Communication thread load                                             60 (D)
 DBCSR| MPI: My process id                                                     0
 DBCSR| MPI: Number of processes                                             256
 DBCSR| OMP: Current number of threads                                         8
 DBCSR| OMP: Max number of threads                                             8
 DBCSR| Split modifier for TAS multiplication algorithm                  1.0E+00 (U)


  **** **** ******  **  PROGRAM STARTED AT               2025-07-15 11:15:20.666
 ***** ** ***  *** **   PROGRAM STARTED ON                              n2cn0309
 **    ****   ******    PROGRAM STARTED BY                              metdyn02
 ***** **    ** ** **   PROGRAM PROCESS ID                               4134875
  **** **  *******  **  PROGRAM STARTED IN /scratch/hpc-prf-metdyn/metdyn02_Remi
                                           /05_TMD_new/3_WS2__/SZVnonaug

 CP2K| version string:                 CP2K version 2025.1 (Development Version)
 CP2K| source code revision number:                                  git:400017f
 CP2K| cp2kflags: omp libint fftw3 libxc libgrpp elpa parallel scalapack mpi_f08
 CP2K|             cosma xsmm plumed2 spglib libvori libbqb libvdwxc hdf5
 CP2K| is freely available from                            https://www.cp2k.org/
 CP2K| Program compiled at                         Thu Jun 26 12:02:16 CEST 2025
 CP2K| Program compiled on                                              n2login1
 CP2K| Program compiled for                                                local
 CP2K| Data directory path    /opt/software/pc2/EB-SW/software/CP2K/2024.1-foss-
 CP2K| Input file name                                                    GW.inp

 GLOBAL| Force Environment number                                              1
 GLOBAL| Basis set file name                                        BASIS_MOLOPT
 GLOBAL| Potential file name                                  GTH_SOC_POTENTIALS
 GLOBAL| MM Potential file name                                     MM_POTENTIAL
 GLOBAL| Coordinate file name                                      __STD_INPUT__
 GLOBAL| Method name                                                        CP2K
 GLOBAL| Project name                                                        WS2
 GLOBAL| Run type                                                         ENERGY
 GLOBAL| FFT library                                                       FFTW3
 GLOBAL| Diagonalization library                                            ELPA
 GLOBAL| Cholesky decomposition library                                ScaLAPACK
 GLOBAL| DGEMM library                                                      BLAS
 GLOBAL| Minimum number of eigenvectors for ELPA usage                        16
 GLOBAL| Orthonormality check for eigenvectors                          DISABLED
 GLOBAL| Matrix multiplication library                                     COSMA
 GLOBAL| All-to-all communication in single precision                          F
 GLOBAL| FFTs using library dependent lengths                                  F
 GLOBAL| Grid backend                                                       AUTO
 GLOBAL| Global print level                                               MEDIUM
 GLOBAL| MPI I/O enabled                                                       T
 GLOBAL| Total number of message passing processes                           256
 GLOBAL| Number of threads for this process                                    8
 GLOBAL| This output is from process                                           0
 GLOBAL| OpenMP stack size per thread (OMP_STACKSIZE)                    default
 GLOBAL| CPU model name                          AMD EPYC 7763 64-Core Processor
 GLOBAL| CPUID                                                              1002

 MEMORY| system memory details [Kb]
 MEMORY|                        rank 0           min           max       average
 MEMORY| MemTotal            263897596     263897568     263897624     263897593
 MEMORY| MemFree             233694280     233694280     245106288     242836450
 MEMORY| Buffers                104508         36192        135796         97972
 MEMORY| Cached               22069148      10661876      22069148      13066866
 MEMORY| Slab                  2190756       1306300       2979168       2124182
 MEMORY| SReclaimable           699776        256148       1302880        674717
 MEMORY| MemLikelyFree       256567712     256175380     257601364     256676006


 *** Fundamental physical constants (SI units) ***

 *** Literature: B. J. Mohr and B. N. Taylor,
 ***             CODATA recommended values of the fundamental physical
 ***             constants: 2006, Web Version 5.1
 ***             http://physics.nist.gov/constants

 Speed of light in vacuum [m/s]                             2.99792458000000E+08
 Magnetic constant or permeability of vacuum [N/A**2]       1.25663706143592E-06
 Electric constant or permittivity of vacuum [F/m]          8.85418781762039E-12
 Planck constant (h) [J*s]                                  6.62606896000000E-34
 Planck constant (h-bar) [J*s]                              1.05457162825177E-34
 Elementary charge [C]                                      1.60217648700000E-19
 Electron mass [kg]                                         9.10938215000000E-31
 Electron g factor [ ]                                     -2.00231930436220E+00
 Proton mass [kg]                                           1.67262163700000E-27
 Fine-structure constant                                    7.29735253760000E-03
 Rydberg constant [1/m]                                     1.09737315685270E+07
 Avogadro constant [1/mol]                                  6.02214179000000E+23
 Boltzmann constant [J/K]                                   1.38065040000000E-23
 Atomic mass unit [kg]                                      1.66053878200000E-27
 Bohr radius [m]                                            5.29177208590000E-11

 *** Conversion factors ***

 [u] -> [a.u.]                                              1.82288848426455E+03
 [Angstrom] -> [Bohr] = [a.u.]                              1.88972613288564E+00
 [a.u.] = [Bohr] -> [Angstrom]                              5.29177208590000E-01
 [a.u.] -> [s]                                              2.41888432650478E-17
 [a.u.] -> [fs]                                             2.41888432650478E-02
 [a.u.] -> [J]                                              4.35974393937059E-18
 [a.u.] -> [N]                                              8.23872205491840E-08
 [a.u.] -> [K]                                              3.15774647902944E+05
 [a.u.] -> [kJ/mol]                                         2.62549961709828E+03
 [a.u.] -> [kcal/mol]                                       6.27509468713739E+02
 [a.u.] -> [Pa]                                             2.94210107994716E+13
 [a.u.] -> [bar]                                            2.94210107994716E+08
 [a.u.] -> [atm]                                            2.90362800883016E+08
 [a.u.] -> [eV]                                             2.72113838565563E+01
 [a.u.] -> [Hz]                                             6.57968392072181E+15
 [a.u.] -> [1/cm] (wave numbers)                            2.19474631370540E+05
 [a.u./Bohr**2] -> [1/cm]                                   5.14048714338585E+03
 

 CELL_TOP| Volume [angstrom^3]:                                       131.860110
 CELL_TOP| Vector a [angstrom     3.186     0.000     0.000   |a| =     3.186000
 CELL_TOP| Vector b [angstrom    -1.593     2.759     0.000   |b| =     3.186000
 CELL_TOP| Vector c [angstrom     0.000     0.000    15.000   |c| =    15.000000
 CELL_TOP| Angle (b,c), alpha [degree]:                                90.000000
 CELL_TOP| Angle (a,c), beta  [degree]:                                90.000000
 CELL_TOP| Angle (a,b), gamma [degree]:                               120.000000
 CELL_TOP| Numerically orthorhombic:                                          NO
 CELL_TOP| Periodicity                                                        XY

 GENERATE|  Preliminary Number of Bonds generated:                             0
 GENERATE|  Achieved consistency in connectivity generation.

 CELL| Volume [angstrom^3]:                                           131.860110
 CELL| Vector a [angstrom]:       3.186     0.000     0.000   |a| =     3.186000
 CELL| Vector b [angstrom]:      -1.593     2.759     0.000   |b| =     3.186000
 CELL| Vector c [angstrom]:       0.000     0.000    15.000   |c| =    15.000000
 CELL| Angle (b,c), alpha [degree]:                                    90.000000
 CELL| Angle (a,c), beta  [degree]:                                    90.000000
 CELL| Angle (a,b), gamma [degree]:                                   120.000000
 CELL| Numerically orthorhombic:                                              NO
 CELL| Periodicity                                                            XY

 CELL_REF| Volume [angstrom^3]:                                       131.860110
 CELL_REF| Vector a [angstrom     3.186     0.000     0.000   |a| =     3.186000
 CELL_REF| Vector b [angstrom    -1.593     2.759     0.000   |b| =     3.186000
 CELL_REF| Vector c [angstrom     0.000     0.000    15.000   |c| =    15.000000
 CELL_REF| Angle (b,c), alpha [degree]:                                90.000000
 CELL_REF| Angle (a,c), beta  [degree]:                                90.000000
 CELL_REF| Angle (a,b), gamma [degree]:                               120.000000
 CELL_REF| Numerically orthorhombic:                                          NO
 CELL_REF| Periodicity                                                        XY

 *******************************************************************************
                                    Kpoints
 *******************************************************************************
 BRILLOUIN| K-point scheme                                        Monkhorst-Pack
 BRILLOUIN| K-Point grid                                            32   32    1
 BRILLOUIN| Accuracy in Symmetry determination                      0.100000E-05
 BRILLOUIN| K-Point point group symmetrization                               OFF
 BRILLOUIN| Wavefunction type                                            COMPLEX
 BRILLOUIN| List of Kpoints [2 Pi/Bohr]                                      512
 BRILLOUIN| Number           Weight            X              Y              Z
 BRILLOUIN|     1           0.00195       -0.48438       -0.48438        0.00000
 BRILLOUIN|     2           0.00195       -0.48438       -0.45312        0.00000
 BRILLOUIN|     3           0.00195       -0.48438       -0.42188        0.00000
 BRILLOUIN|     4           0.00195       -0.48438       -0.39062        0.00000
 BRILLOUIN|     5           0.00195       -0.48438       -0.35938        0.00000
 BRILLOUIN|     6           0.00195       -0.48438       -0.32812        0.00000
 BRILLOUIN|     7           0.00195       -0.48438       -0.29688        0.00000
 BRILLOUIN|     8           0.00195       -0.48438       -0.26562        0.00000
 BRILLOUIN|     9           0.00195       -0.48438       -0.23438        0.00000
 BRILLOUIN|    10           0.00195       -0.48438       -0.20312        0.00000
 BRILLOUIN|    11           0.00195       -0.48438       -0.17188        0.00000
 BRILLOUIN|    12           0.00195       -0.48438       -0.14062        0.00000
 BRILLOUIN|    13           0.00195       -0.48438       -0.10938        0.00000
 BRILLOUIN|    14           0.00195       -0.48438       -0.07812        0.00000
 BRILLOUIN|    15           0.00195       -0.48438       -0.04688        0.00000
 BRILLOUIN|    16           0.00195       -0.48438       -0.01562        0.00000
 BRILLOUIN|    17           0.00195       -0.48438        0.01562        0.00000
 BRILLOUIN|    18           0.00195       -0.48438        0.04688        0.00000
 BRILLOUIN|    19           0.00195       -0.48438        0.07812        0.00000
 BRILLOUIN|    20           0.00195       -0.48438        0.10938        0.00000
 BRILLOUIN|    21           0.00195       -0.48438        0.14062        0.00000
 BRILLOUIN|    22           0.00195       -0.48438        0.17188        0.00000
 BRILLOUIN|    23           0.00195       -0.48438        0.20312        0.00000
 BRILLOUIN|    24           0.00195       -0.48438        0.23438        0.00000
 BRILLOUIN|    25           0.00195       -0.48438        0.26562        0.00000
 BRILLOUIN|    26           0.00195       -0.48438        0.29688        0.00000
 BRILLOUIN|    27           0.00195       -0.48438        0.32812        0.00000
 BRILLOUIN|    28           0.00195       -0.48438        0.35938        0.00000
 BRILLOUIN|    29           0.00195       -0.48438        0.39062        0.00000
 BRILLOUIN|    30           0.00195       -0.48438        0.42188        0.00000
 BRILLOUIN|    31           0.00195       -0.48438        0.45312        0.00000
 BRILLOUIN|    32           0.00195       -0.48438        0.48438        0.00000
 BRILLOUIN|    33           0.00195       -0.45312       -0.48438        0.00000
 BRILLOUIN|    34           0.00195       -0.45312       -0.45312        0.00000
 BRILLOUIN|    35           0.00195       -0.45312       -0.42188        0.00000
 BRILLOUIN|    36           0.00195       -0.45312       -0.39062        0.00000
 BRILLOUIN|    37           0.00195       -0.45312       -0.35938        0.00000
 BRILLOUIN|    38           0.00195       -0.45312       -0.32812        0.00000
 BRILLOUIN|    39           0.00195       -0.45312       -0.29688        0.00000
 BRILLOUIN|    40           0.00195       -0.45312       -0.26562        0.00000
 BRILLOUIN|    41           0.00195       -0.45312       -0.23438        0.00000
 BRILLOUIN|    42           0.00195       -0.45312       -0.20312        0.00000
 BRILLOUIN|    43           0.00195       -0.45312       -0.17188        0.00000
 BRILLOUIN|    44           0.00195       -0.45312       -0.14062        0.00000
 BRILLOUIN|    45           0.00195       -0.45312       -0.10938        0.00000
 BRILLOUIN|    46           0.00195       -0.45312       -0.07812        0.00000
 BRILLOUIN|    47           0.00195       -0.45312       -0.04688        0.00000
 BRILLOUIN|    48           0.00195       -0.45312       -0.01562        0.00000
 BRILLOUIN|    49           0.00195       -0.45312        0.01562        0.00000
 BRILLOUIN|    50           0.00195       -0.45312        0.04688        0.00000
 BRILLOUIN|    51           0.00195       -0.45312        0.07812        0.00000
 BRILLOUIN|    52           0.00195       -0.45312        0.10938        0.00000
 BRILLOUIN|    53           0.00195       -0.45312        0.14062        0.00000
 BRILLOUIN|    54           0.00195       -0.45312        0.17188        0.00000
 BRILLOUIN|    55           0.00195       -0.45312        0.20312        0.00000
 BRILLOUIN|    56           0.00195       -0.45312        0.23438        0.00000
 BRILLOUIN|    57           0.00195       -0.45312        0.26562        0.00000
 BRILLOUIN|    58           0.00195       -0.45312        0.29688        0.00000
 BRILLOUIN|    59           0.00195       -0.45312        0.32812        0.00000
 BRILLOUIN|    60           0.00195       -0.45312        0.35938        0.00000
 BRILLOUIN|    61           0.00195       -0.45312        0.39062        0.00000
 BRILLOUIN|    62           0.00195       -0.45312        0.42188        0.00000
 BRILLOUIN|    63           0.00195       -0.45312        0.45312        0.00000
 BRILLOUIN|    64           0.00195       -0.45312        0.48438        0.00000
 BRILLOUIN|    65           0.00195       -0.42188       -0.48438        0.00000
 BRILLOUIN|    66           0.00195       -0.42188       -0.45312        0.00000
 BRILLOUIN|    67           0.00195       -0.42188       -0.42188        0.00000
 BRILLOUIN|    68           0.00195       -0.42188       -0.39062        0.00000
 BRILLOUIN|    69           0.00195       -0.42188       -0.35938        0.00000
 BRILLOUIN|    70           0.00195       -0.42188       -0.32812        0.00000
 BRILLOUIN|    71           0.00195       -0.42188       -0.29688        0.00000
 BRILLOUIN|    72           0.00195       -0.42188       -0.26562        0.00000
 BRILLOUIN|    73           0.00195       -0.42188       -0.23438        0.00000
 BRILLOUIN|    74           0.00195       -0.42188       -0.20312        0.00000
 BRILLOUIN|    75           0.00195       -0.42188       -0.17188        0.00000
 BRILLOUIN|    76           0.00195       -0.42188       -0.14062        0.00000
 BRILLOUIN|    77           0.00195       -0.42188       -0.10938        0.00000
 BRILLOUIN|    78           0.00195       -0.42188       -0.07812        0.00000
 BRILLOUIN|    79           0.00195       -0.42188       -0.04688        0.00000
 BRILLOUIN|    80           0.00195       -0.42188       -0.01562        0.00000
 BRILLOUIN|    81           0.00195       -0.42188        0.01562        0.00000
 BRILLOUIN|    82           0.00195       -0.42188        0.04688        0.00000
 BRILLOUIN|    83           0.00195       -0.42188        0.07812        0.00000
 BRILLOUIN|    84           0.00195       -0.42188        0.10938        0.00000
 BRILLOUIN|    85           0.00195       -0.42188        0.14062        0.00000
 BRILLOUIN|    86           0.00195       -0.42188        0.17188        0.00000
 BRILLOUIN|    87           0.00195       -0.42188        0.20312        0.00000
 BRILLOUIN|    88           0.00195       -0.42188        0.23438        0.00000
 BRILLOUIN|    89           0.00195       -0.42188        0.26562        0.00000
 BRILLOUIN|    90           0.00195       -0.42188        0.29688        0.00000
 BRILLOUIN|    91           0.00195       -0.42188        0.32812        0.00000
 BRILLOUIN|    92           0.00195       -0.42188        0.35938        0.00000
 BRILLOUIN|    93           0.00195       -0.42188        0.39062        0.00000
 BRILLOUIN|    94           0.00195       -0.42188        0.42188        0.00000
 BRILLOUIN|    95           0.00195       -0.42188        0.45312        0.00000
 BRILLOUIN|    96           0.00195       -0.42188        0.48438        0.00000
 BRILLOUIN|    97           0.00195       -0.39062       -0.48438        0.00000
 BRILLOUIN|    98           0.00195       -0.39062       -0.45312        0.00000
 BRILLOUIN|    99           0.00195       -0.39062       -0.42188        0.00000
 BRILLOUIN|   100           0.00195       -0.39062       -0.39062        0.00000
 BRILLOUIN|   101           0.00195       -0.39062       -0.35938        0.00000
 BRILLOUIN|   102           0.00195       -0.39062       -0.32812        0.00000
 BRILLOUIN|   103           0.00195       -0.39062       -0.29688        0.00000
 BRILLOUIN|   104           0.00195       -0.39062       -0.26562        0.00000
 BRILLOUIN|   105           0.00195       -0.39062       -0.23438        0.00000
 BRILLOUIN|   106           0.00195       -0.39062       -0.20312        0.00000
 BRILLOUIN|   107           0.00195       -0.39062       -0.17188        0.00000
 BRILLOUIN|   108           0.00195       -0.39062       -0.14062        0.00000
 BRILLOUIN|   109           0.00195       -0.39062       -0.10938        0.00000
 BRILLOUIN|   110           0.00195       -0.39062       -0.07812        0.00000
 BRILLOUIN|   111           0.00195       -0.39062       -0.04688        0.00000
 BRILLOUIN|   112           0.00195       -0.39062       -0.01562        0.00000
 BRILLOUIN|   113           0.00195       -0.39062        0.01562        0.00000
 BRILLOUIN|   114           0.00195       -0.39062        0.04688        0.00000
 BRILLOUIN|   115           0.00195       -0.39062        0.07812        0.00000
 BRILLOUIN|   116           0.00195       -0.39062        0.10938        0.00000
 BRILLOUIN|   117           0.00195       -0.39062        0.14062        0.00000
 BRILLOUIN|   118           0.00195       -0.39062        0.17188        0.00000
 BRILLOUIN|   119           0.00195       -0.39062        0.20312        0.00000
 BRILLOUIN|   120           0.00195       -0.39062        0.23438        0.00000
 BRILLOUIN|   121           0.00195       -0.39062        0.26562        0.00000
 BRILLOUIN|   122           0.00195       -0.39062        0.29688        0.00000
 BRILLOUIN|   123           0.00195       -0.39062        0.32812        0.00000
 BRILLOUIN|   124           0.00195       -0.39062        0.35938        0.00000
 BRILLOUIN|   125           0.00195       -0.39062        0.39062        0.00000
 BRILLOUIN|   126           0.00195       -0.39062        0.42188        0.00000
 BRILLOUIN|   127           0.00195       -0.39062        0.45312        0.00000
 BRILLOUIN|   128           0.00195       -0.39062        0.48438        0.00000
 BRILLOUIN|   129           0.00195       -0.35938       -0.48438        0.00000
 BRILLOUIN|   130           0.00195       -0.35938       -0.45312        0.00000
 BRILLOUIN|   131           0.00195       -0.35938       -0.42188        0.00000
 BRILLOUIN|   132           0.00195       -0.35938       -0.39062        0.00000
 BRILLOUIN|   133           0.00195       -0.35938       -0.35938        0.00000
 BRILLOUIN|   134           0.00195       -0.35938       -0.32812        0.00000
 BRILLOUIN|   135           0.00195       -0.35938       -0.29688        0.00000
 BRILLOUIN|   136           0.00195       -0.35938       -0.26562        0.00000
 BRILLOUIN|   137           0.00195       -0.35938       -0.23438        0.00000
 BRILLOUIN|   138           0.00195       -0.35938       -0.20312        0.00000
 BRILLOUIN|   139           0.00195       -0.35938       -0.17188        0.00000
 BRILLOUIN|   140           0.00195       -0.35938       -0.14062        0.00000
 BRILLOUIN|   141           0.00195       -0.35938       -0.10938        0.00000
 BRILLOUIN|   142           0.00195       -0.35938       -0.07812        0.00000
 BRILLOUIN|   143           0.00195       -0.35938       -0.04688        0.00000
 BRILLOUIN|   144           0.00195       -0.35938       -0.01562        0.00000
 BRILLOUIN|   145           0.00195       -0.35938        0.01562        0.00000
 BRILLOUIN|   146           0.00195       -0.35938        0.04688        0.00000
 BRILLOUIN|   147           0.00195       -0.35938        0.07812        0.00000
 BRILLOUIN|   148           0.00195       -0.35938        0.10938        0.00000
 BRILLOUIN|   149           0.00195       -0.35938        0.14062        0.00000
 BRILLOUIN|   150           0.00195       -0.35938        0.17188        0.00000
 BRILLOUIN|   151           0.00195       -0.35938        0.20312        0.00000
 BRILLOUIN|   152           0.00195       -0.35938        0.23438        0.00000
 BRILLOUIN|   153           0.00195       -0.35938        0.26562        0.00000
 BRILLOUIN|   154           0.00195       -0.35938        0.29688        0.00000
 BRILLOUIN|   155           0.00195       -0.35938        0.32812        0.00000
 BRILLOUIN|   156           0.00195       -0.35938        0.35938        0.00000
 BRILLOUIN|   157           0.00195       -0.35938        0.39062        0.00000
 BRILLOUIN|   158           0.00195       -0.35938        0.42188        0.00000
 BRILLOUIN|   159           0.00195       -0.35938        0.45312        0.00000
 BRILLOUIN|   160           0.00195       -0.35938        0.48438        0.00000
 BRILLOUIN|   161           0.00195       -0.32812       -0.48438        0.00000
 BRILLOUIN|   162           0.00195       -0.32812       -0.45312        0.00000
 BRILLOUIN|   163           0.00195       -0.32812       -0.42188        0.00000
 BRILLOUIN|   164           0.00195       -0.32812       -0.39062        0.00000
 BRILLOUIN|   165           0.00195       -0.32812       -0.35938        0.00000
 BRILLOUIN|   166           0.00195       -0.32812       -0.32812        0.00000
 BRILLOUIN|   167           0.00195       -0.32812       -0.29688        0.00000
 BRILLOUIN|   168           0.00195       -0.32812       -0.26562        0.00000
 BRILLOUIN|   169           0.00195       -0.32812       -0.23438        0.00000
 BRILLOUIN|   170           0.00195       -0.32812       -0.20312        0.00000
 BRILLOUIN|   171           0.00195       -0.32812       -0.17188        0.00000
 BRILLOUIN|   172           0.00195       -0.32812       -0.14062        0.00000
 BRILLOUIN|   173           0.00195       -0.32812       -0.10938        0.00000
 BRILLOUIN|   174           0.00195       -0.32812       -0.07812        0.00000
 BRILLOUIN|   175           0.00195       -0.32812       -0.04688        0.00000
 BRILLOUIN|   176           0.00195       -0.32812       -0.01562        0.00000
 BRILLOUIN|   177           0.00195       -0.32812        0.01562        0.00000
 BRILLOUIN|   178           0.00195       -0.32812        0.04688        0.00000
 BRILLOUIN|   179           0.00195       -0.32812        0.07812        0.00000
 BRILLOUIN|   180           0.00195       -0.32812        0.10938        0.00000
 BRILLOUIN|   181           0.00195       -0.32812        0.14062        0.00000
 BRILLOUIN|   182           0.00195       -0.32812        0.17188        0.00000
 BRILLOUIN|   183           0.00195       -0.32812        0.20312        0.00000
 BRILLOUIN|   184           0.00195       -0.32812        0.23438        0.00000
 BRILLOUIN|   185           0.00195       -0.32812        0.26562        0.00000
 BRILLOUIN|   186           0.00195       -0.32812        0.29688        0.00000
 BRILLOUIN|   187           0.00195       -0.32812        0.32812        0.00000
 BRILLOUIN|   188           0.00195       -0.32812        0.35938        0.00000
 BRILLOUIN|   189           0.00195       -0.32812        0.39062        0.00000
 BRILLOUIN|   190           0.00195       -0.32812        0.42188        0.00000
 BRILLOUIN|   191           0.00195       -0.32812        0.45312        0.00000
 BRILLOUIN|   192           0.00195       -0.32812        0.48438        0.00000
 BRILLOUIN|   193           0.00195       -0.29688       -0.48438        0.00000
 BRILLOUIN|   194           0.00195       -0.29688       -0.45312        0.00000
 BRILLOUIN|   195           0.00195       -0.29688       -0.42188        0.00000
 BRILLOUIN|   196           0.00195       -0.29688       -0.39062        0.00000
 BRILLOUIN|   197           0.00195       -0.29688       -0.35938        0.00000
 BRILLOUIN|   198           0.00195       -0.29688       -0.32812        0.00000
 BRILLOUIN|   199           0.00195       -0.29688       -0.29688        0.00000
 BRILLOUIN|   200           0.00195       -0.29688       -0.26562        0.00000
 BRILLOUIN|   201           0.00195       -0.29688       -0.23438        0.00000
 BRILLOUIN|   202           0.00195       -0.29688       -0.20312        0.00000
 BRILLOUIN|   203           0.00195       -0.29688       -0.17188        0.00000
 BRILLOUIN|   204           0.00195       -0.29688       -0.14062        0.00000
 BRILLOUIN|   205           0.00195       -0.29688       -0.10938        0.00000
 BRILLOUIN|   206           0.00195       -0.29688       -0.07812        0.00000
 BRILLOUIN|   207           0.00195       -0.29688       -0.04688        0.00000
 BRILLOUIN|   208           0.00195       -0.29688       -0.01562        0.00000
 BRILLOUIN|   209           0.00195       -0.29688        0.01562        0.00000
 BRILLOUIN|   210           0.00195       -0.29688        0.04688        0.00000
 BRILLOUIN|   211           0.00195       -0.29688        0.07812        0.00000
 BRILLOUIN|   212           0.00195       -0.29688        0.10938        0.00000
 BRILLOUIN|   213           0.00195       -0.29688        0.14062        0.00000
 BRILLOUIN|   214           0.00195       -0.29688        0.17188        0.00000
 BRILLOUIN|   215           0.00195       -0.29688        0.20312        0.00000
 BRILLOUIN|   216           0.00195       -0.29688        0.23438        0.00000
 BRILLOUIN|   217           0.00195       -0.29688        0.26562        0.00000
 BRILLOUIN|   218           0.00195       -0.29688        0.29688        0.00000
 BRILLOUIN|   219           0.00195       -0.29688        0.32812        0.00000
 BRILLOUIN|   220           0.00195       -0.29688        0.35938        0.00000
 BRILLOUIN|   221           0.00195       -0.29688        0.39062        0.00000
 BRILLOUIN|   222           0.00195       -0.29688        0.42188        0.00000
 BRILLOUIN|   223           0.00195       -0.29688        0.45312        0.00000
 BRILLOUIN|   224           0.00195       -0.29688        0.48438        0.00000
 BRILLOUIN|   225           0.00195       -0.26562       -0.48438        0.00000
 BRILLOUIN|   226           0.00195       -0.26562       -0.45312        0.00000
 BRILLOUIN|   227           0.00195       -0.26562       -0.42188        0.00000
 BRILLOUIN|   228           0.00195       -0.26562       -0.39062        0.00000
 BRILLOUIN|   229           0.00195       -0.26562       -0.35938        0.00000
 BRILLOUIN|   230           0.00195       -0.26562       -0.32812        0.00000
 BRILLOUIN|   231           0.00195       -0.26562       -0.29688        0.00000
 BRILLOUIN|   232           0.00195       -0.26562       -0.26562        0.00000
 BRILLOUIN|   233           0.00195       -0.26562       -0.23438        0.00000
 BRILLOUIN|   234           0.00195       -0.26562       -0.20312        0.00000
 BRILLOUIN|   235           0.00195       -0.26562       -0.17188        0.00000
 BRILLOUIN|   236           0.00195       -0.26562       -0.14062        0.00000
 BRILLOUIN|   237           0.00195       -0.26562       -0.10938        0.00000
 BRILLOUIN|   238           0.00195       -0.26562       -0.07812        0.00000
 BRILLOUIN|   239           0.00195       -0.26562       -0.04688        0.00000
 BRILLOUIN|   240           0.00195       -0.26562       -0.01562        0.00000
 BRILLOUIN|   241           0.00195       -0.26562        0.01562        0.00000
 BRILLOUIN|   242           0.00195       -0.26562        0.04688        0.00000
 BRILLOUIN|   243           0.00195       -0.26562        0.07812        0.00000
 BRILLOUIN|   244           0.00195       -0.26562        0.10938        0.00000
 BRILLOUIN|   245           0.00195       -0.26562        0.14062        0.00000
 BRILLOUIN|   246           0.00195       -0.26562        0.17188        0.00000
 BRILLOUIN|   247           0.00195       -0.26562        0.20312        0.00000
 BRILLOUIN|   248           0.00195       -0.26562        0.23438        0.00000
 BRILLOUIN|   249           0.00195       -0.26562        0.26562        0.00000
 BRILLOUIN|   250           0.00195       -0.26562        0.29688        0.00000
 BRILLOUIN|   251           0.00195       -0.26562        0.32812        0.00000
 BRILLOUIN|   252           0.00195       -0.26562        0.35938        0.00000
 BRILLOUIN|   253           0.00195       -0.26562        0.39062        0.00000
 BRILLOUIN|   254           0.00195       -0.26562        0.42188        0.00000
 BRILLOUIN|   255           0.00195       -0.26562        0.45312        0.00000
 BRILLOUIN|   256           0.00195       -0.26562        0.48438        0.00000
 BRILLOUIN|   257           0.00195       -0.23438       -0.48438        0.00000
 BRILLOUIN|   258           0.00195       -0.23438       -0.45312        0.00000
 BRILLOUIN|   259           0.00195       -0.23438       -0.42188        0.00000
 BRILLOUIN|   260           0.00195       -0.23438       -0.39062        0.00000
 BRILLOUIN|   261           0.00195       -0.23438       -0.35938        0.00000
 BRILLOUIN|   262           0.00195       -0.23438       -0.32812        0.00000
 BRILLOUIN|   263           0.00195       -0.23438       -0.29688        0.00000
 BRILLOUIN|   264           0.00195       -0.23438       -0.26562        0.00000
 BRILLOUIN|   265           0.00195       -0.23438       -0.23438        0.00000
 BRILLOUIN|   266           0.00195       -0.23438       -0.20312        0.00000
 BRILLOUIN|   267           0.00195       -0.23438       -0.17188        0.00000
 BRILLOUIN|   268           0.00195       -0.23438       -0.14062        0.00000
 BRILLOUIN|   269           0.00195       -0.23438       -0.10938        0.00000
 BRILLOUIN|   270           0.00195       -0.23438       -0.07812        0.00000
 BRILLOUIN|   271           0.00195       -0.23438       -0.04688        0.00000
 BRILLOUIN|   272           0.00195       -0.23438       -0.01562        0.00000
 BRILLOUIN|   273           0.00195       -0.23438        0.01562        0.00000
 BRILLOUIN|   274           0.00195       -0.23438        0.04688        0.00000
 BRILLOUIN|   275           0.00195       -0.23438        0.07812        0.00000
 BRILLOUIN|   276           0.00195       -0.23438        0.10938        0.00000
 BRILLOUIN|   277           0.00195       -0.23438        0.14062        0.00000
 BRILLOUIN|   278           0.00195       -0.23438        0.17188        0.00000
 BRILLOUIN|   279           0.00195       -0.23438        0.20312        0.00000
 BRILLOUIN|   280           0.00195       -0.23438        0.23438        0.00000
 BRILLOUIN|   281           0.00195       -0.23438        0.26562        0.00000
 BRILLOUIN|   282           0.00195       -0.23438        0.29688        0.00000
 BRILLOUIN|   283           0.00195       -0.23438        0.32812        0.00000
 BRILLOUIN|   284           0.00195       -0.23438        0.35938        0.00000
 BRILLOUIN|   285           0.00195       -0.23438        0.39062        0.00000
 BRILLOUIN|   286           0.00195       -0.23438        0.42188        0.00000
 BRILLOUIN|   287           0.00195       -0.23438        0.45312        0.00000
 BRILLOUIN|   288           0.00195       -0.23438        0.48438        0.00000
 BRILLOUIN|   289           0.00195       -0.20312       -0.48438        0.00000
 BRILLOUIN|   290           0.00195       -0.20312       -0.45312        0.00000
 BRILLOUIN|   291           0.00195       -0.20312       -0.42188        0.00000
 BRILLOUIN|   292           0.00195       -0.20312       -0.39062        0.00000
 BRILLOUIN|   293           0.00195       -0.20312       -0.35938        0.00000
 BRILLOUIN|   294           0.00195       -0.20312       -0.32812        0.00000
 BRILLOUIN|   295           0.00195       -0.20312       -0.29688        0.00000
 BRILLOUIN|   296           0.00195       -0.20312       -0.26562        0.00000
 BRILLOUIN|   297           0.00195       -0.20312       -0.23438        0.00000
 BRILLOUIN|   298           0.00195       -0.20312       -0.20312        0.00000
 BRILLOUIN|   299           0.00195       -0.20312       -0.17188        0.00000
 BRILLOUIN|   300           0.00195       -0.20312       -0.14062        0.00000
 BRILLOUIN|   301           0.00195       -0.20312       -0.10938        0.00000
 BRILLOUIN|   302           0.00195       -0.20312       -0.07812        0.00000
 BRILLOUIN|   303           0.00195       -0.20312       -0.04688        0.00000
 BRILLOUIN|   304           0.00195       -0.20312       -0.01562        0.00000
 BRILLOUIN|   305           0.00195       -0.20312        0.01562        0.00000
 BRILLOUIN|   306           0.00195       -0.20312        0.04688        0.00000
 BRILLOUIN|   307           0.00195       -0.20312        0.07812        0.00000
 BRILLOUIN|   308           0.00195       -0.20312        0.10938        0.00000
 BRILLOUIN|   309           0.00195       -0.20312        0.14062        0.00000
 BRILLOUIN|   310           0.00195       -0.20312        0.17188        0.00000
 BRILLOUIN|   311           0.00195       -0.20312        0.20312        0.00000
 BRILLOUIN|   312           0.00195       -0.20312        0.23438        0.00000
 BRILLOUIN|   313           0.00195       -0.20312        0.26562        0.00000
 BRILLOUIN|   314           0.00195       -0.20312        0.29688        0.00000
 BRILLOUIN|   315           0.00195       -0.20312        0.32812        0.00000
 BRILLOUIN|   316           0.00195       -0.20312        0.35938        0.00000
 BRILLOUIN|   317           0.00195       -0.20312        0.39062        0.00000
 BRILLOUIN|   318           0.00195       -0.20312        0.42188        0.00000
 BRILLOUIN|   319           0.00195       -0.20312        0.45312        0.00000
 BRILLOUIN|   320           0.00195       -0.20312        0.48438        0.00000
 BRILLOUIN|   321           0.00195       -0.17188       -0.48438        0.00000
 BRILLOUIN|   322           0.00195       -0.17188       -0.45312        0.00000
 BRILLOUIN|   323           0.00195       -0.17188       -0.42188        0.00000
 BRILLOUIN|   324           0.00195       -0.17188       -0.39062        0.00000
 BRILLOUIN|   325           0.00195       -0.17188       -0.35938        0.00000
 BRILLOUIN|   326           0.00195       -0.17188       -0.32812        0.00000
 BRILLOUIN|   327           0.00195       -0.17188       -0.29688        0.00000
 BRILLOUIN|   328           0.00195       -0.17188       -0.26562        0.00000
 BRILLOUIN|   329           0.00195       -0.17188       -0.23438        0.00000
 BRILLOUIN|   330           0.00195       -0.17188       -0.20312        0.00000
 BRILLOUIN|   331           0.00195       -0.17188       -0.17188        0.00000
 BRILLOUIN|   332           0.00195       -0.17188       -0.14062        0.00000
 BRILLOUIN|   333           0.00195       -0.17188       -0.10938        0.00000
 BRILLOUIN|   334           0.00195       -0.17188       -0.07812        0.00000
 BRILLOUIN|   335           0.00195       -0.17188       -0.04688        0.00000
 BRILLOUIN|   336           0.00195       -0.17188       -0.01562        0.00000
 BRILLOUIN|   337           0.00195       -0.17188        0.01562        0.00000
 BRILLOUIN|   338           0.00195       -0.17188        0.04688        0.00000
 BRILLOUIN|   339           0.00195       -0.17188        0.07812        0.00000
 BRILLOUIN|   340           0.00195       -0.17188        0.10938        0.00000
 BRILLOUIN|   341           0.00195       -0.17188        0.14062        0.00000
 BRILLOUIN|   342           0.00195       -0.17188        0.17188        0.00000
 BRILLOUIN|   343           0.00195       -0.17188        0.20312        0.00000
 BRILLOUIN|   344           0.00195       -0.17188        0.23438        0.00000
 BRILLOUIN|   345           0.00195       -0.17188        0.26562        0.00000
 BRILLOUIN|   346           0.00195       -0.17188        0.29688        0.00000
 BRILLOUIN|   347           0.00195       -0.17188        0.32812        0.00000
 BRILLOUIN|   348           0.00195       -0.17188        0.35938        0.00000
 BRILLOUIN|   349           0.00195       -0.17188        0.39062        0.00000
 BRILLOUIN|   350           0.00195       -0.17188        0.42188        0.00000
 BRILLOUIN|   351           0.00195       -0.17188        0.45312        0.00000
 BRILLOUIN|   352           0.00195       -0.17188        0.48438        0.00000
 BRILLOUIN|   353           0.00195       -0.14062       -0.48438        0.00000
 BRILLOUIN|   354           0.00195       -0.14062       -0.45312        0.00000
 BRILLOUIN|   355           0.00195       -0.14062       -0.42188        0.00000
 BRILLOUIN|   356           0.00195       -0.14062       -0.39062        0.00000
 BRILLOUIN|   357           0.00195       -0.14062       -0.35938        0.00000
 BRILLOUIN|   358           0.00195       -0.14062       -0.32812        0.00000
 BRILLOUIN|   359           0.00195       -0.14062       -0.29688        0.00000
 BRILLOUIN|   360           0.00195       -0.14062       -0.26562        0.00000
 BRILLOUIN|   361           0.00195       -0.14062       -0.23438        0.00000
 BRILLOUIN|   362           0.00195       -0.14062       -0.20312        0.00000
 BRILLOUIN|   363           0.00195       -0.14062       -0.17188        0.00000
 BRILLOUIN|   364           0.00195       -0.14062       -0.14062        0.00000
 BRILLOUIN|   365           0.00195       -0.14062       -0.10938        0.00000
 BRILLOUIN|   366           0.00195       -0.14062       -0.07812        0.00000
 BRILLOUIN|   367           0.00195       -0.14062       -0.04688        0.00000
 BRILLOUIN|   368           0.00195       -0.14062       -0.01562        0.00000
 BRILLOUIN|   369           0.00195       -0.14062        0.01562        0.00000
 BRILLOUIN|   370           0.00195       -0.14062        0.04688        0.00000
 BRILLOUIN|   371           0.00195       -0.14062        0.07812        0.00000
 BRILLOUIN|   372           0.00195       -0.14062        0.10938        0.00000
 BRILLOUIN|   373           0.00195       -0.14062        0.14062        0.00000
 BRILLOUIN|   374           0.00195       -0.14062        0.17188        0.00000
 BRILLOUIN|   375           0.00195       -0.14062        0.20312        0.00000
 BRILLOUIN|   376           0.00195       -0.14062        0.23438        0.00000
 BRILLOUIN|   377           0.00195       -0.14062        0.26562        0.00000
 BRILLOUIN|   378           0.00195       -0.14062        0.29688        0.00000
 BRILLOUIN|   379           0.00195       -0.14062        0.32812        0.00000
 BRILLOUIN|   380           0.00195       -0.14062        0.35938        0.00000
 BRILLOUIN|   381           0.00195       -0.14062        0.39062        0.00000
 BRILLOUIN|   382           0.00195       -0.14062        0.42188        0.00000
 BRILLOUIN|   383           0.00195       -0.14062        0.45312        0.00000
 BRILLOUIN|   384           0.00195       -0.14062        0.48438        0.00000
 BRILLOUIN|   385           0.00195       -0.10938       -0.48438        0.00000
 BRILLOUIN|   386           0.00195       -0.10938       -0.45312        0.00000
 BRILLOUIN|   387           0.00195       -0.10938       -0.42188        0.00000
 BRILLOUIN|   388           0.00195       -0.10938       -0.39062        0.00000
 BRILLOUIN|   389           0.00195       -0.10938       -0.35938        0.00000
 BRILLOUIN|   390           0.00195       -0.10938       -0.32812        0.00000
 BRILLOUIN|   391           0.00195       -0.10938       -0.29688        0.00000
 BRILLOUIN|   392           0.00195       -0.10938       -0.26562        0.00000
 BRILLOUIN|   393           0.00195       -0.10938       -0.23438        0.00000
 BRILLOUIN|   394           0.00195       -0.10938       -0.20312        0.00000
 BRILLOUIN|   395           0.00195       -0.10938       -0.17188        0.00000
 BRILLOUIN|   396           0.00195       -0.10938       -0.14062        0.00000
 BRILLOUIN|   397           0.00195       -0.10938       -0.10938        0.00000
 BRILLOUIN|   398           0.00195       -0.10938       -0.07812        0.00000
 BRILLOUIN|   399           0.00195       -0.10938       -0.04688        0.00000
 BRILLOUIN|   400           0.00195       -0.10938       -0.01562        0.00000
 BRILLOUIN|   401           0.00195       -0.10938        0.01562        0.00000
 BRILLOUIN|   402           0.00195       -0.10938        0.04688        0.00000
 BRILLOUIN|   403           0.00195       -0.10938        0.07812        0.00000
 BRILLOUIN|   404           0.00195       -0.10938        0.10938        0.00000
 BRILLOUIN|   405           0.00195       -0.10938        0.14062        0.00000
 BRILLOUIN|   406           0.00195       -0.10938        0.17188        0.00000
 BRILLOUIN|   407           0.00195       -0.10938        0.20312        0.00000
 BRILLOUIN|   408           0.00195       -0.10938        0.23438        0.00000
 BRILLOUIN|   409           0.00195       -0.10938        0.26562        0.00000
 BRILLOUIN|   410           0.00195       -0.10938        0.29688        0.00000
 BRILLOUIN|   411           0.00195       -0.10938        0.32812        0.00000
 BRILLOUIN|   412           0.00195       -0.10938        0.35938        0.00000
 BRILLOUIN|   413           0.00195       -0.10938        0.39062        0.00000
 BRILLOUIN|   414           0.00195       -0.10938        0.42188        0.00000
 BRILLOUIN|   415           0.00195       -0.10938        0.45312        0.00000
 BRILLOUIN|   416           0.00195       -0.10938        0.48438        0.00000
 BRILLOUIN|   417           0.00195       -0.07812       -0.48438        0.00000
 BRILLOUIN|   418           0.00195       -0.07812       -0.45312        0.00000
 BRILLOUIN|   419           0.00195       -0.07812       -0.42188        0.00000
 BRILLOUIN|   420           0.00195       -0.07812       -0.39062        0.00000
 BRILLOUIN|   421           0.00195       -0.07812       -0.35938        0.00000
 BRILLOUIN|   422           0.00195       -0.07812       -0.32812        0.00000
 BRILLOUIN|   423           0.00195       -0.07812       -0.29688        0.00000
 BRILLOUIN|   424           0.00195       -0.07812       -0.26562        0.00000
 BRILLOUIN|   425           0.00195       -0.07812       -0.23438        0.00000
 BRILLOUIN|   426           0.00195       -0.07812       -0.20312        0.00000
 BRILLOUIN|   427           0.00195       -0.07812       -0.17188        0.00000
 BRILLOUIN|   428           0.00195       -0.07812       -0.14062        0.00000
 BRILLOUIN|   429           0.00195       -0.07812       -0.10938        0.00000
 BRILLOUIN|   430           0.00195       -0.07812       -0.07812        0.00000
 BRILLOUIN|   431           0.00195       -0.07812       -0.04688        0.00000
 BRILLOUIN|   432           0.00195       -0.07812       -0.01562        0.00000
 BRILLOUIN|   433           0.00195       -0.07812        0.01562        0.00000
 BRILLOUIN|   434           0.00195       -0.07812        0.04688        0.00000
 BRILLOUIN|   435           0.00195       -0.07812        0.07812        0.00000
 BRILLOUIN|   436           0.00195       -0.07812        0.10938        0.00000
 BRILLOUIN|   437           0.00195       -0.07812        0.14062        0.00000
 BRILLOUIN|   438           0.00195       -0.07812        0.17188        0.00000
 BRILLOUIN|   439           0.00195       -0.07812        0.20312        0.00000
 BRILLOUIN|   440           0.00195       -0.07812        0.23438        0.00000
 BRILLOUIN|   441           0.00195       -0.07812        0.26562        0.00000
 BRILLOUIN|   442           0.00195       -0.07812        0.29688        0.00000
 BRILLOUIN|   443           0.00195       -0.07812        0.32812        0.00000
 BRILLOUIN|   444           0.00195       -0.07812        0.35938        0.00000
 BRILLOUIN|   445           0.00195       -0.07812        0.39062        0.00000
 BRILLOUIN|   446           0.00195       -0.07812        0.42188        0.00000
 BRILLOUIN|   447           0.00195       -0.07812        0.45312        0.00000
 BRILLOUIN|   448           0.00195       -0.07812        0.48438        0.00000
 BRILLOUIN|   449           0.00195       -0.04688       -0.48438        0.00000
 BRILLOUIN|   450           0.00195       -0.04688       -0.45312        0.00000
 BRILLOUIN|   451           0.00195       -0.04688       -0.42188        0.00000
 BRILLOUIN|   452           0.00195       -0.04688       -0.39062        0.00000
 BRILLOUIN|   453           0.00195       -0.04688       -0.35938        0.00000
 BRILLOUIN|   454           0.00195       -0.04688       -0.32812        0.00000
 BRILLOUIN|   455           0.00195       -0.04688       -0.29688        0.00000
 BRILLOUIN|   456           0.00195       -0.04688       -0.26562        0.00000
 BRILLOUIN|   457           0.00195       -0.04688       -0.23438        0.00000
 BRILLOUIN|   458           0.00195       -0.04688       -0.20312        0.00000
 BRILLOUIN|   459           0.00195       -0.04688       -0.17188        0.00000
 BRILLOUIN|   460           0.00195       -0.04688       -0.14062        0.00000
 BRILLOUIN|   461           0.00195       -0.04688       -0.10938        0.00000
 BRILLOUIN|   462           0.00195       -0.04688       -0.07812        0.00000
 BRILLOUIN|   463           0.00195       -0.04688       -0.04688        0.00000
 BRILLOUIN|   464           0.00195       -0.04688       -0.01562        0.00000
 BRILLOUIN|   465           0.00195       -0.04688        0.01562        0.00000
 BRILLOUIN|   466           0.00195       -0.04688        0.04688        0.00000
 BRILLOUIN|   467           0.00195       -0.04688        0.07812        0.00000
 BRILLOUIN|   468           0.00195       -0.04688        0.10938        0.00000
 BRILLOUIN|   469           0.00195       -0.04688        0.14062        0.00000
 BRILLOUIN|   470           0.00195       -0.04688        0.17188        0.00000
 BRILLOUIN|   471           0.00195       -0.04688        0.20312        0.00000
 BRILLOUIN|   472           0.00195       -0.04688        0.23438        0.00000
 BRILLOUIN|   473           0.00195       -0.04688        0.26562        0.00000
 BRILLOUIN|   474           0.00195       -0.04688        0.29688        0.00000
 BRILLOUIN|   475           0.00195       -0.04688        0.32812        0.00000
 BRILLOUIN|   476           0.00195       -0.04688        0.35938        0.00000
 BRILLOUIN|   477           0.00195       -0.04688        0.39062        0.00000
 BRILLOUIN|   478           0.00195       -0.04688        0.42188        0.00000
 BRILLOUIN|   479           0.00195       -0.04688        0.45312        0.00000
 BRILLOUIN|   480           0.00195       -0.04688        0.48438        0.00000
 BRILLOUIN|   481           0.00195       -0.01562       -0.48438        0.00000
 BRILLOUIN|   482           0.00195       -0.01562       -0.45312        0.00000
 BRILLOUIN|   483           0.00195       -0.01562       -0.42188        0.00000
 BRILLOUIN|   484           0.00195       -0.01562       -0.39062        0.00000
 BRILLOUIN|   485           0.00195       -0.01562       -0.35938        0.00000
 BRILLOUIN|   486           0.00195       -0.01562       -0.32812        0.00000
 BRILLOUIN|   487           0.00195       -0.01562       -0.29688        0.00000
 BRILLOUIN|   488           0.00195       -0.01562       -0.26562        0.00000
 BRILLOUIN|   489           0.00195       -0.01562       -0.23438        0.00000
 BRILLOUIN|   490           0.00195       -0.01562       -0.20312        0.00000
 BRILLOUIN|   491           0.00195       -0.01562       -0.17188        0.00000
 BRILLOUIN|   492           0.00195       -0.01562       -0.14062        0.00000
 BRILLOUIN|   493           0.00195       -0.01562       -0.10938        0.00000
 BRILLOUIN|   494           0.00195       -0.01562       -0.07812        0.00000
 BRILLOUIN|   495           0.00195       -0.01562       -0.04688        0.00000
 BRILLOUIN|   496           0.00195       -0.01562       -0.01562        0.00000
 BRILLOUIN|   497           0.00195       -0.01562        0.01562        0.00000
 BRILLOUIN|   498           0.00195       -0.01562        0.04688        0.00000
 BRILLOUIN|   499           0.00195       -0.01562        0.07812        0.00000
 BRILLOUIN|   500           0.00195       -0.01562        0.10938        0.00000
 BRILLOUIN|   501           0.00195       -0.01562        0.14062        0.00000
 BRILLOUIN|   502           0.00195       -0.01562        0.17188        0.00000
 BRILLOUIN|   503           0.00195       -0.01562        0.20312        0.00000
 BRILLOUIN|   504           0.00195       -0.01562        0.23438        0.00000
 BRILLOUIN|   505           0.00195       -0.01562        0.26562        0.00000
 BRILLOUIN|   506           0.00195       -0.01562        0.29688        0.00000
 BRILLOUIN|   507           0.00195       -0.01562        0.32812        0.00000
 BRILLOUIN|   508           0.00195       -0.01562        0.35938        0.00000
 BRILLOUIN|   509           0.00195       -0.01562        0.39062        0.00000
 BRILLOUIN|   510           0.00195       -0.01562        0.42188        0.00000
 BRILLOUIN|   511           0.00195       -0.01562        0.45312        0.00000
 BRILLOUIN|   512           0.00195       -0.01562        0.48438        0.00000
 *******************************************************************************

 *******************************************************************************
 *******************************************************************************
 **                                                                           **
 **     #####                         ##              ##                      **
 **    ##   ##            ##          ##              ##                      **
 **   ##     ##                       ##            ######                    **
 **   ##     ##  ##   ##  ##   #####  ##  ##   ####   ##    #####    #####    **
 **   ##     ##  ##   ##  ##  ##      ## ##   ##      ##   ##   ##  ##   ##   **
 **   ##  ## ##  ##   ##  ##  ##      ####     ###    ##   ######   ######    **
 **    ##  ###   ##   ##  ##  ##      ## ##      ##   ##   ##       ##        **
 **     #######   #####   ##   #####  ##  ##  ####    ##    #####   ##        **
 **           ##                                                    ##        **
 **                                                                           **
 **                                                ... make the atoms dance   **
 **                                                                           **
 **            Copyright (C) by CP2K developers group (2000-2025)             **
 **                      J. Chem. Phys. 152, 194103 (2020)                    **
 **                                                                           **
 *******************************************************************************

 DFT| Spin restricted Kohn-Sham (RKS) calculation                            RKS
 DFT| Multiplicity                                                             1
 DFT| Number of spin states                                                    1
 DFT| Charge                                                                   0
 DFT| Self-interaction correction (SIC)                                       NO
 DFT| Cutoffs: density                                              1.000000E-10
 DFT|          gradient                                             1.000000E-10
 DFT|          tau                                                  1.000000E-10
 DFT|          cutoff_smoothing_range                               0.000000E+00
 DFT| XC density smoothing                                                  NONE
 DFT| XC derivatives                                                          PW

 FUNCTIONAL| PBE:
 FUNCTIONAL| J.P.Perdew, K.Burke, M.Ernzerhof, Phys. Rev. Letter, vol. 77, n 18,
 FUNCTIONAL|  pp. 3865-3868, (1996) {spin unpolarized}                          


 QS| Method:                                                                GAPW
 QS| Density plane wave grid type                        NON-SPHERICAL FULLSPACE
 QS| Number of grid levels:                                                    4
 QS| Density cutoff [a.u.]:                                                250.0
 QS| Multi grid cutoff [a.u.]: 1) grid level                               250.0
 QS|                           2) grid level                                83.3
 QS|                           3) grid level                                27.8
 QS|                           4) grid level                                 9.3
 QS| Grid level progression factor:                                          3.0
 QS| Relative density cutoff [a.u.]:                                        50.0
 QS| Interaction thresholds: eps_pgf_orb:                                1.0E-12
 QS|                         eps_filter_matrix:                          0.0E+00
 QS|                         eps_core_charge:                            1.0E-14
 QS|                         eps_rho_gspace:                             1.0E-12
 QS|                         eps_rho_rspace:                             1.0E-12
 QS|                         eps_gvg_rspace:                             1.0E-06
 QS|                         eps_ppl:                                    1.0E-02
 QS|                         eps_ppnl:                                   1.0E-08
 QS| GAPW|      One center basis from orbital basis primitives
 QS| GAPW|                   eps_fit:                                    1.0E-04
 QS| GAPW|                   eps_iso:                                    1.0E-12
 QS| GAPW|                   eps_svd:                                    1.0E-08
 QS| GAPW|                   eps_cpc:                                    1.0E-12
 QS| GAPW|   atom-r-grid: quadrature:                                     GC_LOG
 QS| GAPW|      atom-s-grid:  max l :                                          4
 QS| GAPW|      max_l_rho0 :                                                   2
 QS| GAPW|      At least one kind is NOT PAW, i.e. it has only soft AO 
 QS| GAPW|      The NOT PAW atoms are treated fully GPW


 ATOMIC KIND INFORMATION

  1. Atomic kind: W                                     Number of atoms:       1

     Orbital Basis Set                                         SZV-MOLOPT-SR-GTH

       Number of orbital shell sets:                                           1
       Number of orbital shells:                                               4
       Number of primitive Cartesian functions:                                6
       Number of Cartesian basis functions:                                   11
       Number of spherical basis functions:                                   10
       Norm type:                                                              2

       Normalised Cartesian orbitals:

                        Set   Shell   Orbital            Exponent    Coefficient

                          1       1    2s                3.103254       0.529378
                                                         2.893835       0.343543
                                                         1.106151      -0.674409
                                                         0.501100      -0.158409
                                                         0.214447      -0.013622
                                                         0.074663      -0.014288

                          1       2    3s                3.103254      -0.097470
                                                         2.893835       0.569553
                                                         1.106151      -0.477566
                                                         0.501100      -0.211692
                                                         0.214447       0.068377
                                                         0.074663       0.097560

                          1       3    3px               3.103254       6.695543
                                                         2.893835      -5.556394
                                                         1.106151      -0.965855
                                                         0.501100      -0.267354
                                                         0.214447      -0.010443
                                                         0.074663       0.000342
                          1       3    3py               3.103254       6.695543
                                                         2.893835      -5.556394
                                                         1.106151      -0.965855
                                                         0.501100      -0.267354
                                                         0.214447      -0.010443
                                                         0.074663       0.000342
                          1       3    3pz               3.103254       6.695543
                                                         2.893835      -5.556394
                                                         1.106151      -0.965855
                                                         0.501100      -0.267354
                                                         0.214447      -0.010443
                                                         0.074663       0.000342

                          1       4    4dx2              3.103254      -0.912708
                                                         2.893835       1.052044
                                                         1.106151       0.570193
                                                         0.501100       0.198591
                                                         0.214447       0.042391
                                                         0.074663       0.002139
                          1       4    4dxy              3.103254      -1.580857
                                                         2.893835       1.822194
                                                         1.106151       0.987603
                                                         0.501100       0.343970
                                                         0.214447       0.073424
                                                         0.074663       0.003705
                          1       4    4dxz              3.103254      -1.580857
                                                         2.893835       1.822194
                                                         1.106151       0.987603
                                                         0.501100       0.343970
                                                         0.214447       0.073424
                                                         0.074663       0.003705
                          1       4    4dy2              3.103254      -0.912708
                                                         2.893835       1.052044
                                                         1.106151       0.570193
                                                         0.501100       0.198591
                                                         0.214447       0.042391
                                                         0.074663       0.002139
                          1       4    4dyz              3.103254      -1.580857
                                                         2.893835       1.822194
                                                         1.106151       0.987603
                                                         0.501100       0.343970
                                                         0.214447       0.073424
                                                         0.074663       0.003705
                          1       4    4dz2              3.103254      -0.912708
                                                         2.893835       1.052044
                                                         1.106151       0.570193
                                                         0.501100       0.198591
                                                         0.214447       0.042391
                                                         0.074663       0.002139

     RI Auxiliary Basis Set             RI_aug-SZV-MOLOPT-GTH-tier-2_N_RI_064_s_

       Number of orbital shell sets:                                          16
       Number of orbital shells:                                              16
       Number of primitive Cartesian functions:                               16
       Number of Cartesian basis functions:                                   89
       Number of spherical basis functions:                                   64
       Norm type:                                                              2

       Normalised Cartesian orbitals:

                        Set   Shell   Orbital            Exponent    Coefficient

                          1       1    1s                0.187749       0.203280

                          2       1    7px               0.230391       0.227522
                          2       1    7py               0.230391       0.227522
                          2       1    7pz               0.230391       0.227522

                          3       1   10dx2              0.280505       0.177953
                          3       1   10dxy              0.280505       0.308223
                          3       1   10dxz              0.280505       0.308223
                          3       1   10dy2              0.280505       0.177953
                          3       1   10dyz              0.280505       0.308223
                          3       1   10dz2              0.280505       0.177953

                          4       1    2s                0.362321       0.332836

                          5       1   13fx3              0.427377       0.217410
                          5       1   13fx2y             0.427377       0.486142
                          5       1   13fx2z             0.427377       0.486142
                          5       1   13fxy2             0.427377       0.486142
                          5       1   13fxyz             0.427377       0.842023
                          5       1   13fxz2             0.427377       0.486142
                          5       1   13fy3              0.427377       0.217410
                          5       1   13fy2z             0.427377       0.486142
                          5       1   13fyz2             0.427377       0.486142
                          5       1   13fz3              0.427377       0.217410

                          6       1   16hx5              0.603702       0.143886
                          6       1   16hx4y             0.603702       0.431657
                          6       1   16hx4z             0.603702       0.431657
                          6       1   16hx3y2            0.603702       0.659367
                          6       1   16hx3yz            0.603702       1.142057
                          6       1   16hx3z2            0.603702       0.659367
                          6       1   16hx2y3            0.603702       0.659367
                          6       1   16hx2y2z           0.603702       1.474389
                          6       1   16hx2yz2           0.603702       1.474389
                          6       1   16hx2z3            0.603702       0.659367
                          6       1   16hxy4             0.603702       0.431657
                          6       1   16hxy3z            0.603702       1.142057
                          6       1   16hxy2z2           0.603702       1.474389
                          6       1   16hxyz3            0.603702       1.142057
                          6       1   16hxz4             0.603702       0.431657
                          6       1   16hy5              0.603702       0.143886
                          6       1   16hy4z             0.603702       0.431657
                          6       1   16hy3z2            0.603702       0.659367
                          6       1   16hy2z3            0.603702       0.659367
                          6       1   16hyz4             0.603702       0.431657
                          6       1   16hz5              0.603702       0.143886

                          7       1    3s                0.704421       0.548004

                          8       1   11dx2              0.825654       1.177079
                          8       1   11dxy              0.825654       2.038761
                          8       1   11dxz              0.825654       2.038761
                          8       1   11dy2              0.825654       1.177079
                          8       1   11dyz              0.825654       2.038761
                          8       1   11dz2              0.825654       1.177079

                          9       1    8px               0.843187       1.151715
                          9       1    8py               0.843187       1.151715
                          9       1    8pz               0.843187       1.151715

                         10       1    9px               1.114177       1.631673
                         10       1    9py               1.114177       1.631673
                         10       1    9pz               1.114177       1.631673

                         11       1   15gx4              1.347135       2.525319
                         11       1   15gx3y             1.347135       6.681365
                         11       1   15gx3z             1.347135       6.681365
                         11       1   15gx2y2            1.347135       8.625606
                         11       1   15gx2yz            1.347135      14.939987
                         11       1   15gx2z2            1.347135       8.625606
                         11       1   15gxy3             1.347135       6.681365
                         11       1   15gxy2z            1.347135      14.939987
                         11       1   15gxyz2            1.347135      14.939987
                         11       1   15gxz3             1.347135       6.681365
                         11       1   15gy4              1.347135       2.525319
                         11       1   15gy3z             1.347135       6.681365
                         11       1   15gy2z2            1.347135       8.625606
                         11       1   15gyz3             1.347135       6.681365
                         11       1   15gz4              1.347135       2.525319

                         12       1    4s                1.373078       0.904027

                         13       1   14fx3              1.992867       6.946737
                         13       1   14fx2y             1.992867      15.533376
                         13       1   14fx2z             1.992867      15.533376
                         13       1   14fxy2             1.992867      15.533376
                         13       1   14fxyz             1.992867      26.904596
                         13       1   14fxz2             1.992867      15.533376
                         13       1   14fy3              1.992867       6.946737
                         13       1   14fy2z             1.992867      15.533376
                         13       1   14fyz2             1.992867      15.533376
                         13       1   14fz3              1.992867       6.946737

                         14       1   12dx2              2.080415       5.931598
                         14       1   12dxy              2.080415      10.273830
                         14       1   12dxz              2.080415      10.273830
                         14       1   12dy2              2.080415       5.931598
                         14       1   12dyz              2.080415      10.273830
                         14       1   12dz2              2.080415       5.931598

                         15       1    5s                2.666326       1.487117

                         16       1    6s                5.175921       2.445687

       Atomic covalent radius [Angstrom]:                                  1.300

       Atomic van der Waals radius [Angstrom]:                             1.670

     GTH Potential information for                                   GTH-PBE-q14

       Description:                       Goedecker-Teter-Hutter pseudopotential
                                           Goedecker et al., PRB 54, 1703 (1996)
                                          Hartwigsen et al., PRB 58, 3641 (1998)
                                                      Krack, TCA 114, 145 (2005)

       Gaussian exponent of the core charge distribution:               1.714678
       Electronic configuration (s p d ...):                           4   6   4

       Parameters of the local part of the GTH pseudopotential:

                          rloc        C1          C2          C3          C4
                        0.540000   13.414811   -2.213456

       Parameters of the non-local part of the GTH (SOC) pseudopotential:

                   l      r(l)      h(i,j,l)
                                    k(i,j,l)
                   0    0.397028   -4.141211    3.835423    2.233179
                                    3.835423   -1.319244   -5.766044
                                    2.233179   -5.766044    4.576656
                   1    0.353531   -7.456236    8.112326    0.000000
                                    8.112326   -9.598634    0.000000
                                    0.000000    0.000000    0.000000
                                    1.424856   -0.047910   -0.233482
                                   -0.047910   -0.332024    0.552519
                                   -0.233482    0.552519   -0.392678
                   2    0.412107   -0.954661   -1.067446
                                   -1.067446    1.210370
                                    0.070160    0.013189
                                    0.013189   -0.014954

  2. Atomic kind: S                                     Number of atoms:       2

     Orbital Basis Set                                            SZV-MOLOPT-GTH

       Number of orbital shell sets:                                           1
       Number of orbital shells:                                               2
       Number of primitive Cartesian functions:                                6
       Number of Cartesian basis functions:                                    4
       Number of spherical basis functions:                                    4
       Norm type:                                                              2

       Normalised Cartesian orbitals:

                        Set   Shell   Orbital            Exponent    Coefficient

                          1       1    2s                3.817591       0.157264
                                                         2.362752      -0.510082
                                                         0.861004      -0.067545
                                                         0.417525       0.341507
                                                         0.181514       0.065073
                                                         0.070571       0.000166

                          1       2    3px               3.817591      -0.172386
                                                         2.362752      -0.175607
                                                         0.861004       0.224215
                                                         0.417525       0.286358
                                                         0.181514       0.049699
                                                         0.070571       0.001588
                          1       2    3py               3.817591      -0.172386
                                                         2.362752      -0.175607
                                                         0.861004       0.224215
                                                         0.417525       0.286358
                                                         0.181514       0.049699
                                                         0.070571       0.001588
                          1       2    3pz               3.817591      -0.172386
                                                         2.362752      -0.175607
                                                         0.861004       0.224215
                                                         0.417525       0.286358
                                                         0.181514       0.049699
                                                         0.070571       0.001588

     RI Auxiliary Basis Set             RI_aug-SZV-MOLOPT-GTH-tier-2_N_RI_028_s_

       Number of orbital shell sets:                                          10
       Number of orbital shells:                                              10
       Number of primitive Cartesian functions:                               10
       Number of Cartesian basis functions:                                   33
       Number of spherical basis functions:                                   28
       Norm type:                                                              2

       Normalised Cartesian orbitals:

                        Set   Shell   Orbital            Exponent    Coefficient

                          1       1    1s                0.175093       0.192913

                          2       1    8dx2              0.234328       0.129897
                          2       1    8dxy              0.234328       0.224989
                          2       1    8dxz              0.234328       0.224989
                          2       1    8dy2              0.234328       0.129897
                          2       1    8dyz              0.234328       0.224989
                          2       1    8dz2              0.234328       0.129897

                          3       1    6px               0.327358       0.352955
                          3       1    6py               0.327358       0.352955
                          3       1    6pz               0.327358       0.352955

                          4       1    2s                0.417113       0.369914

                          5       1    7px               0.579793       0.721159
                          5       1    7py               0.579793       0.721159
                          5       1    7pz               0.579793       0.721159

                          6       1   10fx3              0.628431       0.517648
                          6       1   10fx2y             0.628431       1.157497
                          6       1   10fx2z             0.628431       1.157497
                          6       1   10fxy2             0.628431       1.157497
                          6       1   10fxyz             0.628431       2.004843
                          6       1   10fxz2             0.628431       1.157497
                          6       1   10fy3              0.628431       0.517648
                          6       1   10fy2z             0.628431       1.157497
                          6       1   10fyz2             0.628431       1.157497
                          6       1   10fz3              0.628431       0.517648

                          7       1    9dx2              0.794782       1.101143
                          7       1    9dxy              0.794782       1.907235
                          7       1    9dxz              0.794782       1.907235
                          7       1    9dy2              0.794782       1.101143
                          7       1    9dyz              0.794782       1.907235
                          7       1    9dz2              0.794782       1.101143

                          8       1    3s                1.062106       0.745652

                          9       1    4s                2.633020       1.473163

[...]
 do_general_diag_kp                  74  6.0    0.358    0.394  807.721  807.781
 dbcsr_complete_redistribute     508704  9.6    9.866   13.701  739.826  790.469
 compute_chi                          1  7.0    0.011    0.034  767.134  767.231
 dbt_contract                   1434304 10.3    6.785   11.650  448.312  760.527
 dbt_tas_multiply               1622016 12.9    0.830    1.456  404.215  694.970
 dbt_tas_total                  1622016 13.9   35.235   61.572  403.687  694.095
 dbcsr_desymmetrize_deep         452313  8.3    4.579    5.433  646.231  647.731
 mp_alltoall_d11v               2883051 10.4  529.682  531.581  529.682  531.581
 mp_alltoall_i11v               1978425 10.3  515.376  515.502  515.376  515.502
 G_occ_vir                          121  8.0    0.267    0.324  501.555  502.787
 fm_to_local_tensor              146072  9.0    2.406    2.692  401.243  401.259
 copy_fm_to_dbcsr                222007  9.3    0.504    0.535  338.887  389.481
 parallel_gemm_cfm               280952  8.9    0.156    0.199  352.974  358.420
 parallel_gemm_cfm_cosma         280952  9.9  352.819  358.277  352.819  358.277
 local_dbt_to_global_fm              91  8.0    0.147    0.158  318.070  318.097
 dbt_tas_estimate_result_nze     811008 13.4   17.066   30.924  169.748  293.353
 mp_alltoall_i22                 961017 10.0  233.521  283.847  233.521  283.847
 contract_to_Sigma                   84  8.0    4.778    5.790  166.435  281.505
 hybrid_alltoall_any             452313  9.3    1.261    1.314  247.799  248.444
 contract_M_occ_vir_to_chi           48  8.0    8.668   10.912   96.315  230.998
 contract_W                          44  8.0    1.560    2.456  155.171  213.970
 compute_QP_energies                  1  7.0    0.050    0.082  212.916  212.944
 trafo_to_k_and_nn                71492  8.0    0.204    0.261  212.781  212.811
 add_V_L                         327680 10.0    2.981  191.862    2.981  191.862
 reshape_mm_small               1622016 14.9   57.483   99.090  105.594  175.742
 G_times_3c                        9648  8.0    1.997    3.148  115.175  171.014
 global_matrix_to_local_matrix   146072 10.0    2.193    2.913  144.217  161.821
 contract_to_Sigma_3c_x_G        279735  9.0    0.239    0.352  108.355  161.111
 dbt_tas_dbm                    1622016 14.9    0.736    1.231   82.135  150.186
 dbm_multiply                   1622016 16.9   80.569  147.524   80.569  147.524
 kpoint_density_transform            74  7.0    0.113    0.127  133.097  133.123
 contract_to_Sigma_contract        8643  9.0    1.692    2.298   51.573  112.342
 fm_MWM_R_t_to_local_tensor_W_R      30  8.0    0.020    0.023  110.416  110.429
 get_V_tr_R                          34  9.0    0.079    0.086  104.019  104.084
 dbt_tas_create_split           4886396 15.8    1.698    2.871   60.051  102.638
 mp_sum_dm                       655433 10.0   91.191  101.770   91.191  101.770
 fm_to_local_array                  934  8.1   27.550   28.799  101.136  101.457
 dbt_tas_create_split_rows_or_c 4886396 16.8    6.126   10.381   58.353   99.766
 mult_W_with_Minv                    30  8.0    0.337    0.387   98.588   98.626
 mp_waitall_1                   1593830 11.1   76.060   95.090   76.060   95.090
 send_data                       146072 11.0    0.093    0.104   76.735   94.614
 communicate_buffer              146072 12.0    1.658   19.828   76.642   94.520
 reshape_mm_compatible          1622016 14.9    7.909   13.809   54.069   92.190
 dbt_copy                       2238756 10.8    5.584    9.232   56.383   91.705
 mp_sum_dm3                        1069  9.0   73.394   75.407   73.394   75.407
 dbt_tas_distribution_new       4039106 15.4   24.332   38.560   46.985   74.662
 dbt_tas_mm_2                    638798 15.9    0.241    0.594   28.133   71.830
 mp_cart_create                 8275506 16.0   50.768   67.124   53.505   71.413
 add_rs_to_ikp                  *******  9.9   65.557   68.893   65.557   68.893
 cp_fm_start_copy_general        227328  7.3    0.959    1.730   63.383   63.558
 change_split                   2181564 15.4    2.585    4.623   35.114   62.479
 add_ikp_to_rs                  ******* 10.0   57.849   62.195   57.849   62.195
 trafo_rs_to_ikp                   5368  8.1    1.927    2.237   57.913   61.504
 local_dbt_to_global_mat          87451  9.0    0.299    0.314   52.744   61.345
 rsmat_to_kp                       7032  7.2    0.050    0.054   59.966   60.093
 dbt_reshape                    1368907 11.7   26.060   42.642   36.140   58.736
 fm_add_ikp_to_rs                123904  9.0   35.636   39.973   52.315   56.823
 mp_allgather_i                  454656  8.3   56.038   56.629   56.038   56.629
 dbt_tas_reshape                1873476 15.4    5.185    8.309   34.067   53.831
 dbt_tas_mm_3T                   610050 16.1    0.241    0.361   35.136   52.782
 mp_sum_i                       1516634 15.3   49.352   49.715   49.352   49.715
 send_sizes_1                    146072 11.0    0.083    0.091   49.136   49.587
 add_ikp_to_all_rs                 4924  8.0    1.714    1.952   42.896   46.957
 dbt_tas_replicate              1622016 14.9   14.576   21.506   30.100   46.884
 mp_cart_sub                     573473 10.0   44.879   44.975   44.879   44.975
 compute_Sigma_x                      1  7.0    0.002    0.002   42.936   42.979
 get_t_3c_int                    995421  9.3    1.773    2.620   29.043   42.255
 dos_pdos_ldos                        1  5.0    0.004    0.005   37.967   38.039
 create_and_init_bs_env_for_gw        1  6.0    0.004    0.009   37.995   38.003
 fm_trafo_rs_to_ikp               71492  9.0   20.860   23.413   30.431   33.055
 dbt_remap                       125730 11.0    8.841   12.258   23.875   32.893
 mp_comm_dup                    4075392 18.3   17.649   30.758   18.879   32.831
 SOC_ev                            2344  6.0    0.012    0.015   30.602   30.678
 soc                                  1  5.0    0.000    0.000   30.058   30.058
 H_KS_spinor_kp                       1  6.0    0.007    0.008   30.043   30.046
 dbt_tas_mm_1N                   373168 15.5    0.134    0.206   17.974   29.422
 get_data                        146072 11.0    4.735   28.325    4.949   28.578
 create_and_init_bs_env               1  5.0    0.000    0.002   27.846   27.850
 compute_cfm_mo_coeff_kp_and_ei       1  6.0    0.002    0.003   27.834   27.834
 power                            10204  8.0    1.634    1.828   24.069   25.146
 convert_to_new_pgrid           4866048 14.9    5.290    9.116   13.595   23.647
 diag_complex                     10204  9.0   22.436   23.389   22.436   23.389
 dbcsr_finalize                 1939943 10.9    3.683    4.116   19.379   23.244
 mp_comm_free                   ******* 15.0   14.734   23.202   14.734   23.202
 mp_sum_dv                        78751  8.9   18.064   22.878   18.064   22.878
 local_matrix_to_global_matrix    87451 10.0    0.162    0.183   13.562   22.501
 mp_comm_split_direct           4886400 17.8   12.237   20.970   13.108   22.492
 dbt_tas_reserve_blocks_index   5900621 15.6    2.552    4.065   14.006   22.345
 dbm_reserve_blocks             7522637 16.4   13.752   22.268   13.752   22.268
 cp_cfm_heevd                      4836  7.5    0.003    0.003   20.810   20.992
 cp_cfm_heevd_base                 4836  8.5   20.807   20.989   20.807   20.989
 dbt_tas_reshape_buffer_fill    1873476 16.4   11.967   18.262   11.967   18.262
 dbt_tas_reshape_buffer_obtain  1873476 16.4    7.261   11.798   11.298   18.160
 dbt_permute_index              3676201 12.1    9.242   15.444   10.500   17.586
 dbt_distribution_new_expert     543614 11.9    2.464    2.851   14.474   16.878
 compute_3c_integrals                 1  7.0    0.037    0.045   16.413   16.428
 build_3c_integrals                   1  8.0   14.403   15.332   15.240   16.183
 dbt_tas_create_new             6200323 15.1    9.628   16.152    9.628   16.152
 dbt_create_matrix               146072 10.0    0.829    0.857   14.839   15.834
 dbt_tas_merge                   638798 14.9    4.450   11.574    5.962   15.402
 mp_alltoall_i                  6466832 15.0   13.526   15.064   13.526   15.064
 dbm_copy                       3244032 15.9    8.305   14.565    8.305   14.565
 dbt_align_index                2433024 11.4    1.351    2.362    8.065   13.889
 trafo_V_xc_R_to_kp                   1  7.0    0.004    0.005   13.716   13.726
 reshape_mm_template             251460 15.5    6.262    8.692    9.516   13.166
 dbt_destroy                    6597318 10.1    9.801   11.495   10.711   12.524
 dbcsr_merge_all                 736031 11.7    7.521    9.147   10.035   12.059
 add_R                          *******  9.3    7.492    8.442   10.487   11.790
 dbt_tas_reserve_blocks_templat 2271131 14.0    2.374    3.840    7.428   11.748
 dbcsr_filter_anytype            658353 11.0    1.504    1.595    8.154   11.532
 dbt_tas_mp_comm                 936738 13.0    0.808    1.374    6.774   11.386
 dbt_create_3c_R1_R2                 62  8.0    2.194    2.434   10.086   10.825
 get_Minv_Vtr_Minv_R                  1  8.0    0.015    0.017   10.621   10.633
 dbt_tas_copy                    649115 12.2    4.594    6.516    7.527   10.428
 destroy_t_2d                        62  8.0    2.254    2.844    8.515   10.235
 dbt_reserve_blocks_index       1756014 13.4    1.006    1.561    6.188   10.023
 dbt_reserve_blocks_index_array 1589641 12.7    0.660    1.117    5.652    9.897
 dbt_create_template            2649310  9.0    8.417    9.059    8.417    9.059
 dbt_create_new                  271807 11.4    1.546    1.865    7.674    8.981
 set_blocks                       87451 11.0    1.924    4.039    3.965    8.561
 mp_cart_get                    ******* 15.9    4.820    8.383    4.820    8.383
 send_sizes_2                    146072 11.0    0.080    0.086    7.436    7.797
 dbt_copy_nocomm                 220734 11.0    1.953    5.363    2.868    7.766
 mp_isend_dv                    ******* 12.2    0.386    7.604    0.386    7.604
 mp_comm_size                   ******* 16.1    4.316    7.568    4.316    7.568
 dbt_communicate_buffer         1368907 12.7    4.359    7.317    4.359    7.317
 dbm_add                        1622016 14.9    4.440    7.258    4.440    7.258
 compute_proj_mo_on_kind           1172  6.0    0.013    0.016    7.130    7.221
 mp_isend_im2                   ******* 13.0    0.259    7.124    0.259    7.124
 cp_cfm_geeig_canon                1172  7.0    0.004    0.005    7.089    7.097
 is_cell_in_index_to_cell       *******  9.7    5.286    6.912    5.286    6.912
 mp_comm_rank                   ******* 16.1    3.320    5.877    3.320    5.877
 dbt_pgrid_create_expert         543617 12.9    0.547    0.676    4.897    5.633
 dbm_filter                     2552675 14.7    3.074    5.392    3.074    5.392
 rskp_transform                   82808  7.1    0.131    5.300    0.131    5.300
 heuristic_RI_regularization          1  7.0    0.000    0.001    5.197    5.198
 comm_size                        87451 11.0    0.076    0.082    4.834    5.141
 dbcsr_work_create              1188344 10.2    3.187    3.706    4.569    5.140
 dbcsr_create_new               1667355  9.8    3.664    3.979    4.571    4.855
 dbcsr_iterator_start           4224853 10.8    3.780    3.915    4.545    4.704
 mp_bcast_iv                     909493  8.3    4.389    4.675    4.389    4.675
 dbt_nd_mp_comm                  271802 11.4    0.317    0.380    3.878    4.630
 dbt_tas_communicate_buffer     3495492 17.2    2.438    4.587    2.438    4.587
 comm_data                        87451 11.0    0.171    0.979    1.077    4.294
 dbt_tas_reshape_communicate_bu 1873476 16.4    0.646    1.188    2.209    3.968
 copy_fm_to_dbcsr_bc             222007 10.3    1.023    1.066    3.602    3.748
 dbcsr_work_destroy_all         1188344 11.1    2.226    2.630    3.201    3.723
 mp_sum_l                       9434585 15.0    2.013    3.468    2.013    3.468
 qs_ks_update_qs_env                 74  5.0    0.000    0.000    3.238    3.288
 dbcsr_data_release             ******* 11.7    2.911    3.270    2.911    3.270
 fill_buffer                      87451 11.0    2.366    3.110    2.491    3.238
 dbm_scale                      2198832 14.2    1.809    3.192    1.809    3.192
 dbt_tas_reshape_get_coord      1873476 16.4    1.880    3.080    1.880    3.080
 qs_ks_build_kohn_sham_matrix        77  7.0    0.020    0.029    2.869    2.919
 dbcsr_iterator_stop            4224853 10.8    2.182    2.325    2.723    2.863
 rebuild_ks_matrix                   74  6.0    0.000    0.000    2.746    2.796
 mp_waitall_2                    174902 12.0    0.848    2.788    0.848    2.788
 dbt_create_2c_R                     98  8.0    1.399    2.429    1.708    2.729
 dbcsr_data_new                 ******* 11.1    2.588    2.693    2.588    2.693
 dbcsr_destroy                  1555418  9.6    1.315    1.385    2.568    2.670
 dbt_copy_matrix_to_tensor       146072 10.0    0.803    0.854    2.479    2.559
 write_kpoints_restart               74  5.0    0.002    0.192    2.450    2.477
 transform_dmat                   37888  8.0    0.056    2.452    0.056    2.452
 dbt_reserve_blocks_template     220734 12.0    0.163    0.439    0.915    2.403
 reserve_blocks                  146072 11.0    0.351    0.382    2.247    2.400
 build_2c_integrals                  34 10.0    0.051    1.236    0.367    2.323
 transfer_rs2pw                     379  8.4    0.002    0.003    2.076    2.168
 analyt_conti_and_print            1172  8.0    0.010    2.106    0.049    2.140
 transfer_pw2rs                     386 10.6    0.002    0.003    2.027    2.103
 transfer_rs2pw_250                 154 10.0    0.137    0.158    1.918    2.018
 mp_sendrecv_dv                   96645 10.4    1.896    1.999    1.896    1.999
 sum_up_and_integrate                77  8.0    0.002    0.007    0.598    1.992
 integrate_v_rspace                  77  9.0    0.001    0.005    0.596    1.985
 qs_rho_update_rho_low               75  5.0    0.001    0.001    1.974    1.978
 calculate_rho_elec                  75  6.0    0.002    0.003    1.971    1.973
 mp_bcast_im                     454656  8.3    1.721    1.950    1.721    1.950
 transfer_pw2rs_250                 155 11.0    0.126    0.143    1.820    1.902
 dbt_tas_reshape_alltoall       1873476 16.4    0.588    0.987    1.104    1.864
 dbt_tas_replicate_communicate_  983218 15.9    0.397    0.597    1.029    1.753
 density_rs2pw                       75  7.0    0.002    0.003    1.669    1.710
 tree_to_linear_d                587598 12.6    1.506    1.706    1.506    1.706
 integrate_vhg0_rspace               77  8.0    0.001    0.001    1.594    1.662
 dbcsr_reserve_blocks            592389 12.2    0.944    1.283    1.199    1.617
 copy_dbcsr_to_fm_bc             286697  9.0    0.712    0.777    1.528    1.587
 mp_bcast_i                     4886899 17.8    0.850    1.557    0.850    1.557
 dbt_distribution_destroy        543614 11.9    1.002    1.223    1.262    1.519
 dbcsr_set                      1575369 10.4    0.744    0.792    1.303    1.483
 quick_finalize                  452313 10.3    0.662    0.854    1.084    1.448
 grid_integrate_task_list            77 10.0    0.024    1.416    0.024    1.416
 grid_collocate_task_list            75  7.0    0.297    1.394    0.297    1.394
 dbt_reserve_blocks_matrix_to_t  146072 11.0    0.401    0.431    1.339    1.386
 mp_cart_rank                   3933720 15.9    0.951    1.384    0.951    1.384
 mp_dims_create                 4039103 14.0    0.823    1.366    0.823    1.366
 get_coord                        87451 11.0    0.603    0.737    1.033    1.322
 dbt_tas_merge_communicate_buff  638798 15.9    0.150    0.377    0.393    1.256
 dbcsr_copy                      187872 10.1    0.362    0.707    0.904    1.249
 fill_mat_local                  146072 11.0    0.798    0.994    0.972    1.168
 dbcsr_reserve_all_blocks        309458 11.5    0.245    0.261    0.802    1.073
 compute_V_xc                         1  7.0    0.000    0.000    1.049    1.050
 dbt_copy_tensor_to_matrix        87451 10.0    0.298    0.374    0.912    1.014
 mp_sum_iv                         2368  9.0    0.536    0.927    0.536    0.927
 dbt_tas_replicate_alltoall      983218 15.9    0.339    0.505    0.580    0.922
 dbcsr_distribution_new          508743 10.0    0.681    0.910    0.681    0.910
 add_cfm_submat                   11720  7.0    0.044    0.048    0.561    0.902
 dbcsr_iterator_seek            4224853 11.8    0.765    0.900    0.765    0.900
 write_SOC_eigenvalues              148  6.0    0.004    0.893    0.004    0.893
 dbt_buffer_get_index           3495492 16.7    0.508    0.883    0.508    0.883
 setup_parallelization_Delta_R        1  7.0    0.000    0.002    0.875    0.877
 compute_n_tensor_ops_Delta_R         1  8.0    0.181    0.384    0.871    0.871
 cp_fm_to_fm_submat               23440  8.0    0.501    0.841    0.501    0.841
 ab_contract                    1233408 11.0    0.013    0.812    0.013    0.812
 mp_max_i                       2869071 11.3    0.458    0.767    0.458    0.767
 alloc_block_3c                       1  9.0    0.170    0.175    0.665    0.747
 dbcsr_zero                     1575369 11.4    0.559    0.729    0.559    0.729
 create_qs_kind_set                   1  2.0    0.000    0.001    0.695    0.722
 read_qs_kind                         2  3.0    0.382    0.415    0.695    0.722
 dbt_tas_merge_alltoall          638798 15.9    0.154    0.378    0.275    0.693
 dbcsr_sort_indices             1196282 12.6    0.354    0.688    0.354    0.688
 add_to_DOS_PDOS                   4688  6.5    0.635    0.667    0.635    0.667
 dbcsr_make_index_exist         1667355 10.8    0.576    0.617    0.576    0.617
 external_control                    74  5.0    0.002    0.584    0.587    0.587
 mp_bcast_b_src                      74  6.0    0.585    0.587    0.585    0.587
 potential_pw2rs                     77 10.0    0.001    0.001    0.570    0.575
 cp_fm_write_unformatted            636  6.0    0.508    0.565    0.508    0.571
 mp_irecv_im2                   2817732 13.0    0.243    0.569    0.243    0.569
 get_sizes                       146072 11.0    0.341    0.384    0.503    0.546
 setup_cells_3c                       1  7.0    0.014    0.016    0.540    0.544
 mp_sum_d                         24803  8.8    0.505    0.538    0.505    0.538
 dbcsr_copy_into_existing         75935 10.0    0.205    0.309    0.421    0.536
 fft_wrap_pw1pw2                   1443 10.1    0.005    0.005    0.498    0.526
 build_3c_integral_block           3005  8.0    0.191    0.401    0.513    0.525
 dbcsr_dot                        23533  8.0    0.042    0.049    0.501    0.520
 evaluate_core_matrix_traces         74  6.0    0.000    0.000    0.491    0.492
 calculate_ptrace_kp                148  7.0    0.008    0.009    0.491    0.492
 cp_cfm_gemm                       3516  8.0    0.461    0.485    0.461    0.485
 merge_index                     736031 12.7    0.350    0.481    0.350    0.481
 mp_bcast_dm                          2  9.5    0.464    0.476    0.464    0.476
 mp_irecv_dv                    2590404 12.2    0.240    0.463    0.240    0.463
 -------------------------------------------------------------------------------

 The number of warnings for this run is : 1
 
 -------------------------------------------------------------------------------
  **** **** ******  **  PROGRAM ENDED AT                 2025-07-15 12:30:47.171
 ***** ** ***  *** **   PROGRAM RAN ON                                  n2cn0309
 **    ****   ******    PROGRAM RAN BY                                  metdyn02
 ***** **    ** ** **   PROGRAM PROCESS ID                               4134875
  **** **  *******  **  PROGRAM STOPPED IN /scratch/hpc-prf-metdyn/metdyn02_Remi
                                           /05_TMD_new/3_WS2__/SZVnonaug
