 DBCSR| CPU Multiplication driver                                           XSMM (U)
 DBCSR| Multrec recursion limit                                              512 (U)
 DBCSR| Multiplication stack size                                           1000 (D)
 DBCSR| Maximum elements for images                                    UNLIMITED (U)
 DBCSR| Multiplicative factor virtual images                                   1 (U)
 DBCSR| Use multiplication densification                                       T (D)
 DBCSR| Multiplication size stacks                                             3 (U)
 DBCSR| Use memory pool for CPU allocation                                     F (U)
 DBCSR| Number of 3D layers                                               SINGLE (U)
 DBCSR| Use MPI memory allocation                                              F (U)
 DBCSR| Use RMA algorithm                                                      F (U)
 DBCSR| Use Communication thread                                               T (U)
 DBCSR| Communication thread load                                             60 (D)
 DBCSR| MPI: My process id                                                     0
 DBCSR| MPI: Number of processes                                             256
 DBCSR| OMP: Current number of threads                                         8
 DBCSR| OMP: Max number of threads                                             8
 DBCSR| Split modifier for TAS multiplication algorithm                  1.0E+00 (U)


  **** **** ******  **  PROGRAM STARTED AT               2025-07-15 11:15:19.037
 ***** ** ***  *** **   PROGRAM STARTED ON                              n2cn0660
 **    ****   ******    PROGRAM STARTED BY                              metdyn02
 ***** **    ** ** **   PROGRAM PROCESS ID                                253373
  **** **  *******  **  PROGRAM STARTED IN /scratch/hpc-prf-metdyn/metdyn02_Remi
                                           /05_TMD_new/4_WSe2_/SZVnonaug

 CP2K| version string:                 CP2K version 2025.1 (Development Version)
 CP2K| source code revision number:                                  git:400017f
 CP2K| cp2kflags: omp libint fftw3 libxc libgrpp elpa parallel scalapack mpi_f08
 CP2K|             cosma xsmm plumed2 spglib libvori libbqb libvdwxc hdf5
 CP2K| is freely available from                            https://www.cp2k.org/
 CP2K| Program compiled at                         Thu Jun 26 12:02:16 CEST 2025
 CP2K| Program compiled on                                              n2login1
 CP2K| Program compiled for                                                local
 CP2K| Data directory path    /opt/software/pc2/EB-SW/software/CP2K/2024.1-foss-
 CP2K| Input file name                                                    GW.inp

 GLOBAL| Force Environment number                                              1
 GLOBAL| Basis set file name                                        BASIS_MOLOPT
 GLOBAL| Potential file name                                  GTH_SOC_POTENTIALS
 GLOBAL| MM Potential file name                                     MM_POTENTIAL
 GLOBAL| Coordinate file name                                      __STD_INPUT__
 GLOBAL| Method name                                                        CP2K
 GLOBAL| Project name                                                       MoS2
 GLOBAL| Run type                                                         ENERGY
 GLOBAL| FFT library                                                       FFTW3
 GLOBAL| Diagonalization library                                            ELPA
 GLOBAL| Cholesky decomposition library                                ScaLAPACK
 GLOBAL| DGEMM library                                                      BLAS
 GLOBAL| Minimum number of eigenvectors for ELPA usage                        16
 GLOBAL| Orthonormality check for eigenvectors                          DISABLED
 GLOBAL| Matrix multiplication library                                     COSMA
 GLOBAL| All-to-all communication in single precision                          F
 GLOBAL| FFTs using library dependent lengths                                  F
 GLOBAL| Grid backend                                                       AUTO
 GLOBAL| Global print level                                               MEDIUM
 GLOBAL| MPI I/O enabled                                                       T
 GLOBAL| Total number of message passing processes                           256
 GLOBAL| Number of threads for this process                                    8
 GLOBAL| This output is from process                                           0
 GLOBAL| OpenMP stack size per thread (OMP_STACKSIZE)                    default
 GLOBAL| CPU model name                          AMD EPYC 7763 64-Core Processor
 GLOBAL| CPUID                                                              1002

 MEMORY| system memory details [Kb]
 MEMORY|                        rank 0           min           max       average
 MEMORY| MemTotal            263897632     263897556     263897640     263897597
 MEMORY| MemFree             235319556     235319556     251302024     243667324
 MEMORY| Buffers                 82748         34356        142120         92320
 MEMORY| Cached               20429328       6272920      20429328      12612623
 MEMORY| Slab                  2332744       1062456       3016312       1885225
 MEMORY| SReclaimable           751100        222464       1302932        543490
 MEMORY| MemLikelyFree       256582732     256030056     257936724     256915759


 *** Fundamental physical constants (SI units) ***

 *** Literature: B. J. Mohr and B. N. Taylor,
 ***             CODATA recommended values of the fundamental physical
 ***             constants: 2006, Web Version 5.1
 ***             http://physics.nist.gov/constants

 Speed of light in vacuum [m/s]                             2.99792458000000E+08
 Magnetic constant or permeability of vacuum [N/A**2]       1.25663706143592E-06
 Electric constant or permittivity of vacuum [F/m]          8.85418781762039E-12
 Planck constant (h) [J*s]                                  6.62606896000000E-34
 Planck constant (h-bar) [J*s]                              1.05457162825177E-34
 Elementary charge [C]                                      1.60217648700000E-19
 Electron mass [kg]                                         9.10938215000000E-31
 Electron g factor [ ]                                     -2.00231930436220E+00
 Proton mass [kg]                                           1.67262163700000E-27
 Fine-structure constant                                    7.29735253760000E-03
 Rydberg constant [1/m]                                     1.09737315685270E+07
 Avogadro constant [1/mol]                                  6.02214179000000E+23
 Boltzmann constant [J/K]                                   1.38065040000000E-23
 Atomic mass unit [kg]                                      1.66053878200000E-27
 Bohr radius [m]                                            5.29177208590000E-11

 *** Conversion factors ***

 [u] -> [a.u.]                                              1.82288848426455E+03
 [Angstrom] -> [Bohr] = [a.u.]                              1.88972613288564E+00
 [a.u.] = [Bohr] -> [Angstrom]                              5.29177208590000E-01
 [a.u.] -> [s]                                              2.41888432650478E-17
 [a.u.] -> [fs]                                             2.41888432650478E-02
 [a.u.] -> [J]                                              4.35974393937059E-18
 [a.u.] -> [N]                                              8.23872205491840E-08
 [a.u.] -> [K]                                              3.15774647902944E+05
 [a.u.] -> [kJ/mol]                                         2.62549961709828E+03
 [a.u.] -> [kcal/mol]                                       6.27509468713739E+02
 [a.u.] -> [Pa]                                             2.94210107994716E+13
 [a.u.] -> [bar]                                            2.94210107994716E+08
 [a.u.] -> [atm]                                            2.90362800883016E+08
 [a.u.] -> [eV]                                             2.72113838565563E+01
 [a.u.] -> [Hz]                                             6.57968392072181E+15
 [a.u.] -> [1/cm] (wave numbers)                            2.19474631370540E+05
 [a.u./Bohr**2] -> [1/cm]                                   5.14048714338585E+03
 

 CELL_TOP| Volume [angstrom^3]:                                       143.098933
 CELL_TOP| Vector a [angstrom     3.319     0.000     0.000   |a| =     3.319000
 CELL_TOP| Vector b [angstrom    -1.659     2.874     0.000   |b| =     3.319000
 CELL_TOP| Vector c [angstrom     0.000     0.000    15.000   |c| =    15.000000
 CELL_TOP| Angle (b,c), alpha [degree]:                                90.000000
 CELL_TOP| Angle (a,c), beta  [degree]:                                90.000000
 CELL_TOP| Angle (a,b), gamma [degree]:                               120.000000
 CELL_TOP| Numerically orthorhombic:                                          NO
 CELL_TOP| Periodicity                                                        XY

 GENERATE|  Preliminary Number of Bonds generated:                             0
 GENERATE|  Achieved consistency in connectivity generation.

 CELL| Volume [angstrom^3]:                                           143.098933
 CELL| Vector a [angstrom]:       3.319     0.000     0.000   |a| =     3.319000
 CELL| Vector b [angstrom]:      -1.659     2.874     0.000   |b| =     3.319000
 CELL| Vector c [angstrom]:       0.000     0.000    15.000   |c| =    15.000000
 CELL| Angle (b,c), alpha [degree]:                                    90.000000
 CELL| Angle (a,c), beta  [degree]:                                    90.000000
 CELL| Angle (a,b), gamma [degree]:                                   120.000000
 CELL| Numerically orthorhombic:                                              NO
 CELL| Periodicity                                                            XY

 CELL_REF| Volume [angstrom^3]:                                       143.098933
 CELL_REF| Vector a [angstrom     3.319     0.000     0.000   |a| =     3.319000
 CELL_REF| Vector b [angstrom    -1.659     2.874     0.000   |b| =     3.319000
 CELL_REF| Vector c [angstrom     0.000     0.000    15.000   |c| =    15.000000
 CELL_REF| Angle (b,c), alpha [degree]:                                90.000000
 CELL_REF| Angle (a,c), beta  [degree]:                                90.000000
 CELL_REF| Angle (a,b), gamma [degree]:                               120.000000
 CELL_REF| Numerically orthorhombic:                                          NO
 CELL_REF| Periodicity                                                        XY

 *******************************************************************************
                                    Kpoints
 *******************************************************************************
 BRILLOUIN| K-point scheme                                        Monkhorst-Pack
 BRILLOUIN| K-Point grid                                            32   32    1
 BRILLOUIN| Accuracy in Symmetry determination                      0.100000E-05
 BRILLOUIN| K-Point point group symmetrization                               OFF
 BRILLOUIN| Wavefunction type                                            COMPLEX
 BRILLOUIN| List of Kpoints [2 Pi/Bohr]                                      512
 BRILLOUIN| Number           Weight            X              Y              Z
 BRILLOUIN|     1           0.00195       -0.48438       -0.48438        0.00000
 BRILLOUIN|     2           0.00195       -0.48438       -0.45312        0.00000
 BRILLOUIN|     3           0.00195       -0.48438       -0.42188        0.00000
 BRILLOUIN|     4           0.00195       -0.48438       -0.39062        0.00000
 BRILLOUIN|     5           0.00195       -0.48438       -0.35938        0.00000
 BRILLOUIN|     6           0.00195       -0.48438       -0.32812        0.00000
 BRILLOUIN|     7           0.00195       -0.48438       -0.29688        0.00000
 BRILLOUIN|     8           0.00195       -0.48438       -0.26562        0.00000
 BRILLOUIN|     9           0.00195       -0.48438       -0.23438        0.00000
 BRILLOUIN|    10           0.00195       -0.48438       -0.20312        0.00000
 BRILLOUIN|    11           0.00195       -0.48438       -0.17188        0.00000
 BRILLOUIN|    12           0.00195       -0.48438       -0.14062        0.00000
 BRILLOUIN|    13           0.00195       -0.48438       -0.10938        0.00000
 BRILLOUIN|    14           0.00195       -0.48438       -0.07812        0.00000
 BRILLOUIN|    15           0.00195       -0.48438       -0.04688        0.00000
 BRILLOUIN|    16           0.00195       -0.48438       -0.01562        0.00000
 BRILLOUIN|    17           0.00195       -0.48438        0.01562        0.00000
 BRILLOUIN|    18           0.00195       -0.48438        0.04688        0.00000
 BRILLOUIN|    19           0.00195       -0.48438        0.07812        0.00000
 BRILLOUIN|    20           0.00195       -0.48438        0.10938        0.00000
 BRILLOUIN|    21           0.00195       -0.48438        0.14062        0.00000
 BRILLOUIN|    22           0.00195       -0.48438        0.17188        0.00000
 BRILLOUIN|    23           0.00195       -0.48438        0.20312        0.00000
 BRILLOUIN|    24           0.00195       -0.48438        0.23438        0.00000
 BRILLOUIN|    25           0.00195       -0.48438        0.26562        0.00000
 BRILLOUIN|    26           0.00195       -0.48438        0.29688        0.00000
 BRILLOUIN|    27           0.00195       -0.48438        0.32812        0.00000
 BRILLOUIN|    28           0.00195       -0.48438        0.35938        0.00000
 BRILLOUIN|    29           0.00195       -0.48438        0.39062        0.00000
 BRILLOUIN|    30           0.00195       -0.48438        0.42188        0.00000
 BRILLOUIN|    31           0.00195       -0.48438        0.45312        0.00000
 BRILLOUIN|    32           0.00195       -0.48438        0.48438        0.00000
 BRILLOUIN|    33           0.00195       -0.45312       -0.48438        0.00000
 BRILLOUIN|    34           0.00195       -0.45312       -0.45312        0.00000
 BRILLOUIN|    35           0.00195       -0.45312       -0.42188        0.00000
 BRILLOUIN|    36           0.00195       -0.45312       -0.39062        0.00000
 BRILLOUIN|    37           0.00195       -0.45312       -0.35938        0.00000
 BRILLOUIN|    38           0.00195       -0.45312       -0.32812        0.00000
 BRILLOUIN|    39           0.00195       -0.45312       -0.29688        0.00000
 BRILLOUIN|    40           0.00195       -0.45312       -0.26562        0.00000
 BRILLOUIN|    41           0.00195       -0.45312       -0.23438        0.00000
 BRILLOUIN|    42           0.00195       -0.45312       -0.20312        0.00000
 BRILLOUIN|    43           0.00195       -0.45312       -0.17188        0.00000
 BRILLOUIN|    44           0.00195       -0.45312       -0.14062        0.00000
 BRILLOUIN|    45           0.00195       -0.45312       -0.10938        0.00000
 BRILLOUIN|    46           0.00195       -0.45312       -0.07812        0.00000
 BRILLOUIN|    47           0.00195       -0.45312       -0.04688        0.00000
 BRILLOUIN|    48           0.00195       -0.45312       -0.01562        0.00000
 BRILLOUIN|    49           0.00195       -0.45312        0.01562        0.00000
 BRILLOUIN|    50           0.00195       -0.45312        0.04688        0.00000
 BRILLOUIN|    51           0.00195       -0.45312        0.07812        0.00000
 BRILLOUIN|    52           0.00195       -0.45312        0.10938        0.00000
 BRILLOUIN|    53           0.00195       -0.45312        0.14062        0.00000
 BRILLOUIN|    54           0.00195       -0.45312        0.17188        0.00000
 BRILLOUIN|    55           0.00195       -0.45312        0.20312        0.00000
 BRILLOUIN|    56           0.00195       -0.45312        0.23438        0.00000
 BRILLOUIN|    57           0.00195       -0.45312        0.26562        0.00000
 BRILLOUIN|    58           0.00195       -0.45312        0.29688        0.00000
 BRILLOUIN|    59           0.00195       -0.45312        0.32812        0.00000
 BRILLOUIN|    60           0.00195       -0.45312        0.35938        0.00000
 BRILLOUIN|    61           0.00195       -0.45312        0.39062        0.00000
 BRILLOUIN|    62           0.00195       -0.45312        0.42188        0.00000
 BRILLOUIN|    63           0.00195       -0.45312        0.45312        0.00000
 BRILLOUIN|    64           0.00195       -0.45312        0.48438        0.00000
 BRILLOUIN|    65           0.00195       -0.42188       -0.48438        0.00000
 BRILLOUIN|    66           0.00195       -0.42188       -0.45312        0.00000
 BRILLOUIN|    67           0.00195       -0.42188       -0.42188        0.00000
 BRILLOUIN|    68           0.00195       -0.42188       -0.39062        0.00000
 BRILLOUIN|    69           0.00195       -0.42188       -0.35938        0.00000
 BRILLOUIN|    70           0.00195       -0.42188       -0.32812        0.00000
 BRILLOUIN|    71           0.00195       -0.42188       -0.29688        0.00000
 BRILLOUIN|    72           0.00195       -0.42188       -0.26562        0.00000
 BRILLOUIN|    73           0.00195       -0.42188       -0.23438        0.00000
 BRILLOUIN|    74           0.00195       -0.42188       -0.20312        0.00000
 BRILLOUIN|    75           0.00195       -0.42188       -0.17188        0.00000
 BRILLOUIN|    76           0.00195       -0.42188       -0.14062        0.00000
 BRILLOUIN|    77           0.00195       -0.42188       -0.10938        0.00000
 BRILLOUIN|    78           0.00195       -0.42188       -0.07812        0.00000
 BRILLOUIN|    79           0.00195       -0.42188       -0.04688        0.00000
 BRILLOUIN|    80           0.00195       -0.42188       -0.01562        0.00000
 BRILLOUIN|    81           0.00195       -0.42188        0.01562        0.00000
 BRILLOUIN|    82           0.00195       -0.42188        0.04688        0.00000
 BRILLOUIN|    83           0.00195       -0.42188        0.07812        0.00000
 BRILLOUIN|    84           0.00195       -0.42188        0.10938        0.00000
 BRILLOUIN|    85           0.00195       -0.42188        0.14062        0.00000
 BRILLOUIN|    86           0.00195       -0.42188        0.17188        0.00000
 BRILLOUIN|    87           0.00195       -0.42188        0.20312        0.00000
 BRILLOUIN|    88           0.00195       -0.42188        0.23438        0.00000
 BRILLOUIN|    89           0.00195       -0.42188        0.26562        0.00000
 BRILLOUIN|    90           0.00195       -0.42188        0.29688        0.00000
 BRILLOUIN|    91           0.00195       -0.42188        0.32812        0.00000
 BRILLOUIN|    92           0.00195       -0.42188        0.35938        0.00000
 BRILLOUIN|    93           0.00195       -0.42188        0.39062        0.00000
 BRILLOUIN|    94           0.00195       -0.42188        0.42188        0.00000
 BRILLOUIN|    95           0.00195       -0.42188        0.45312        0.00000
 BRILLOUIN|    96           0.00195       -0.42188        0.48438        0.00000
 BRILLOUIN|    97           0.00195       -0.39062       -0.48438        0.00000
 BRILLOUIN|    98           0.00195       -0.39062       -0.45312        0.00000
 BRILLOUIN|    99           0.00195       -0.39062       -0.42188        0.00000
 BRILLOUIN|   100           0.00195       -0.39062       -0.39062        0.00000
 BRILLOUIN|   101           0.00195       -0.39062       -0.35938        0.00000
 BRILLOUIN|   102           0.00195       -0.39062       -0.32812        0.00000
 BRILLOUIN|   103           0.00195       -0.39062       -0.29688        0.00000
 BRILLOUIN|   104           0.00195       -0.39062       -0.26562        0.00000
 BRILLOUIN|   105           0.00195       -0.39062       -0.23438        0.00000
 BRILLOUIN|   106           0.00195       -0.39062       -0.20312        0.00000
 BRILLOUIN|   107           0.00195       -0.39062       -0.17188        0.00000
 BRILLOUIN|   108           0.00195       -0.39062       -0.14062        0.00000
 BRILLOUIN|   109           0.00195       -0.39062       -0.10938        0.00000
 BRILLOUIN|   110           0.00195       -0.39062       -0.07812        0.00000
 BRILLOUIN|   111           0.00195       -0.39062       -0.04688        0.00000
 BRILLOUIN|   112           0.00195       -0.39062       -0.01562        0.00000
 BRILLOUIN|   113           0.00195       -0.39062        0.01562        0.00000
 BRILLOUIN|   114           0.00195       -0.39062        0.04688        0.00000
 BRILLOUIN|   115           0.00195       -0.39062        0.07812        0.00000
 BRILLOUIN|   116           0.00195       -0.39062        0.10938        0.00000
 BRILLOUIN|   117           0.00195       -0.39062        0.14062        0.00000
 BRILLOUIN|   118           0.00195       -0.39062        0.17188        0.00000
 BRILLOUIN|   119           0.00195       -0.39062        0.20312        0.00000
 BRILLOUIN|   120           0.00195       -0.39062        0.23438        0.00000
 BRILLOUIN|   121           0.00195       -0.39062        0.26562        0.00000
 BRILLOUIN|   122           0.00195       -0.39062        0.29688        0.00000
 BRILLOUIN|   123           0.00195       -0.39062        0.32812        0.00000
 BRILLOUIN|   124           0.00195       -0.39062        0.35938        0.00000
 BRILLOUIN|   125           0.00195       -0.39062        0.39062        0.00000
 BRILLOUIN|   126           0.00195       -0.39062        0.42188        0.00000
 BRILLOUIN|   127           0.00195       -0.39062        0.45312        0.00000
 BRILLOUIN|   128           0.00195       -0.39062        0.48438        0.00000
 BRILLOUIN|   129           0.00195       -0.35938       -0.48438        0.00000
 BRILLOUIN|   130           0.00195       -0.35938       -0.45312        0.00000
 BRILLOUIN|   131           0.00195       -0.35938       -0.42188        0.00000
 BRILLOUIN|   132           0.00195       -0.35938       -0.39062        0.00000
 BRILLOUIN|   133           0.00195       -0.35938       -0.35938        0.00000
 BRILLOUIN|   134           0.00195       -0.35938       -0.32812        0.00000
 BRILLOUIN|   135           0.00195       -0.35938       -0.29688        0.00000
 BRILLOUIN|   136           0.00195       -0.35938       -0.26562        0.00000
 BRILLOUIN|   137           0.00195       -0.35938       -0.23438        0.00000
 BRILLOUIN|   138           0.00195       -0.35938       -0.20312        0.00000
 BRILLOUIN|   139           0.00195       -0.35938       -0.17188        0.00000
 BRILLOUIN|   140           0.00195       -0.35938       -0.14062        0.00000
 BRILLOUIN|   141           0.00195       -0.35938       -0.10938        0.00000
 BRILLOUIN|   142           0.00195       -0.35938       -0.07812        0.00000
 BRILLOUIN|   143           0.00195       -0.35938       -0.04688        0.00000
 BRILLOUIN|   144           0.00195       -0.35938       -0.01562        0.00000
 BRILLOUIN|   145           0.00195       -0.35938        0.01562        0.00000
 BRILLOUIN|   146           0.00195       -0.35938        0.04688        0.00000
 BRILLOUIN|   147           0.00195       -0.35938        0.07812        0.00000
 BRILLOUIN|   148           0.00195       -0.35938        0.10938        0.00000
 BRILLOUIN|   149           0.00195       -0.35938        0.14062        0.00000
 BRILLOUIN|   150           0.00195       -0.35938        0.17188        0.00000
 BRILLOUIN|   151           0.00195       -0.35938        0.20312        0.00000
 BRILLOUIN|   152           0.00195       -0.35938        0.23438        0.00000
 BRILLOUIN|   153           0.00195       -0.35938        0.26562        0.00000
 BRILLOUIN|   154           0.00195       -0.35938        0.29688        0.00000
 BRILLOUIN|   155           0.00195       -0.35938        0.32812        0.00000
 BRILLOUIN|   156           0.00195       -0.35938        0.35938        0.00000
 BRILLOUIN|   157           0.00195       -0.35938        0.39062        0.00000
 BRILLOUIN|   158           0.00195       -0.35938        0.42188        0.00000
 BRILLOUIN|   159           0.00195       -0.35938        0.45312        0.00000
 BRILLOUIN|   160           0.00195       -0.35938        0.48438        0.00000
 BRILLOUIN|   161           0.00195       -0.32812       -0.48438        0.00000
 BRILLOUIN|   162           0.00195       -0.32812       -0.45312        0.00000
 BRILLOUIN|   163           0.00195       -0.32812       -0.42188        0.00000
 BRILLOUIN|   164           0.00195       -0.32812       -0.39062        0.00000
 BRILLOUIN|   165           0.00195       -0.32812       -0.35938        0.00000
 BRILLOUIN|   166           0.00195       -0.32812       -0.32812        0.00000
 BRILLOUIN|   167           0.00195       -0.32812       -0.29688        0.00000
 BRILLOUIN|   168           0.00195       -0.32812       -0.26562        0.00000
 BRILLOUIN|   169           0.00195       -0.32812       -0.23438        0.00000
 BRILLOUIN|   170           0.00195       -0.32812       -0.20312        0.00000
 BRILLOUIN|   171           0.00195       -0.32812       -0.17188        0.00000
 BRILLOUIN|   172           0.00195       -0.32812       -0.14062        0.00000
 BRILLOUIN|   173           0.00195       -0.32812       -0.10938        0.00000
 BRILLOUIN|   174           0.00195       -0.32812       -0.07812        0.00000
 BRILLOUIN|   175           0.00195       -0.32812       -0.04688        0.00000
 BRILLOUIN|   176           0.00195       -0.32812       -0.01562        0.00000
 BRILLOUIN|   177           0.00195       -0.32812        0.01562        0.00000
 BRILLOUIN|   178           0.00195       -0.32812        0.04688        0.00000
 BRILLOUIN|   179           0.00195       -0.32812        0.07812        0.00000
 BRILLOUIN|   180           0.00195       -0.32812        0.10938        0.00000
 BRILLOUIN|   181           0.00195       -0.32812        0.14062        0.00000
 BRILLOUIN|   182           0.00195       -0.32812        0.17188        0.00000
 BRILLOUIN|   183           0.00195       -0.32812        0.20312        0.00000
 BRILLOUIN|   184           0.00195       -0.32812        0.23438        0.00000
 BRILLOUIN|   185           0.00195       -0.32812        0.26562        0.00000
 BRILLOUIN|   186           0.00195       -0.32812        0.29688        0.00000
 BRILLOUIN|   187           0.00195       -0.32812        0.32812        0.00000
 BRILLOUIN|   188           0.00195       -0.32812        0.35938        0.00000
 BRILLOUIN|   189           0.00195       -0.32812        0.39062        0.00000
 BRILLOUIN|   190           0.00195       -0.32812        0.42188        0.00000
 BRILLOUIN|   191           0.00195       -0.32812        0.45312        0.00000
 BRILLOUIN|   192           0.00195       -0.32812        0.48438        0.00000
 BRILLOUIN|   193           0.00195       -0.29688       -0.48438        0.00000
 BRILLOUIN|   194           0.00195       -0.29688       -0.45312        0.00000
 BRILLOUIN|   195           0.00195       -0.29688       -0.42188        0.00000
 BRILLOUIN|   196           0.00195       -0.29688       -0.39062        0.00000
 BRILLOUIN|   197           0.00195       -0.29688       -0.35938        0.00000
 BRILLOUIN|   198           0.00195       -0.29688       -0.32812        0.00000
 BRILLOUIN|   199           0.00195       -0.29688       -0.29688        0.00000
 BRILLOUIN|   200           0.00195       -0.29688       -0.26562        0.00000
 BRILLOUIN|   201           0.00195       -0.29688       -0.23438        0.00000
 BRILLOUIN|   202           0.00195       -0.29688       -0.20312        0.00000
 BRILLOUIN|   203           0.00195       -0.29688       -0.17188        0.00000
 BRILLOUIN|   204           0.00195       -0.29688       -0.14062        0.00000
 BRILLOUIN|   205           0.00195       -0.29688       -0.10938        0.00000
 BRILLOUIN|   206           0.00195       -0.29688       -0.07812        0.00000
 BRILLOUIN|   207           0.00195       -0.29688       -0.04688        0.00000
 BRILLOUIN|   208           0.00195       -0.29688       -0.01562        0.00000
 BRILLOUIN|   209           0.00195       -0.29688        0.01562        0.00000
 BRILLOUIN|   210           0.00195       -0.29688        0.04688        0.00000
 BRILLOUIN|   211           0.00195       -0.29688        0.07812        0.00000
 BRILLOUIN|   212           0.00195       -0.29688        0.10938        0.00000
 BRILLOUIN|   213           0.00195       -0.29688        0.14062        0.00000
 BRILLOUIN|   214           0.00195       -0.29688        0.17188        0.00000
 BRILLOUIN|   215           0.00195       -0.29688        0.20312        0.00000
 BRILLOUIN|   216           0.00195       -0.29688        0.23438        0.00000
 BRILLOUIN|   217           0.00195       -0.29688        0.26562        0.00000
 BRILLOUIN|   218           0.00195       -0.29688        0.29688        0.00000
 BRILLOUIN|   219           0.00195       -0.29688        0.32812        0.00000
 BRILLOUIN|   220           0.00195       -0.29688        0.35938        0.00000
 BRILLOUIN|   221           0.00195       -0.29688        0.39062        0.00000
 BRILLOUIN|   222           0.00195       -0.29688        0.42188        0.00000
 BRILLOUIN|   223           0.00195       -0.29688        0.45312        0.00000
 BRILLOUIN|   224           0.00195       -0.29688        0.48438        0.00000
 BRILLOUIN|   225           0.00195       -0.26562       -0.48438        0.00000
 BRILLOUIN|   226           0.00195       -0.26562       -0.45312        0.00000
 BRILLOUIN|   227           0.00195       -0.26562       -0.42188        0.00000
 BRILLOUIN|   228           0.00195       -0.26562       -0.39062        0.00000
 BRILLOUIN|   229           0.00195       -0.26562       -0.35938        0.00000
 BRILLOUIN|   230           0.00195       -0.26562       -0.32812        0.00000
 BRILLOUIN|   231           0.00195       -0.26562       -0.29688        0.00000
 BRILLOUIN|   232           0.00195       -0.26562       -0.26562        0.00000
 BRILLOUIN|   233           0.00195       -0.26562       -0.23438        0.00000
 BRILLOUIN|   234           0.00195       -0.26562       -0.20312        0.00000
 BRILLOUIN|   235           0.00195       -0.26562       -0.17188        0.00000
 BRILLOUIN|   236           0.00195       -0.26562       -0.14062        0.00000
 BRILLOUIN|   237           0.00195       -0.26562       -0.10938        0.00000
 BRILLOUIN|   238           0.00195       -0.26562       -0.07812        0.00000
 BRILLOUIN|   239           0.00195       -0.26562       -0.04688        0.00000
 BRILLOUIN|   240           0.00195       -0.26562       -0.01562        0.00000
 BRILLOUIN|   241           0.00195       -0.26562        0.01562        0.00000
 BRILLOUIN|   242           0.00195       -0.26562        0.04688        0.00000
 BRILLOUIN|   243           0.00195       -0.26562        0.07812        0.00000
 BRILLOUIN|   244           0.00195       -0.26562        0.10938        0.00000
 BRILLOUIN|   245           0.00195       -0.26562        0.14062        0.00000
 BRILLOUIN|   246           0.00195       -0.26562        0.17188        0.00000
 BRILLOUIN|   247           0.00195       -0.26562        0.20312        0.00000
 BRILLOUIN|   248           0.00195       -0.26562        0.23438        0.00000
 BRILLOUIN|   249           0.00195       -0.26562        0.26562        0.00000
 BRILLOUIN|   250           0.00195       -0.26562        0.29688        0.00000
 BRILLOUIN|   251           0.00195       -0.26562        0.32812        0.00000
 BRILLOUIN|   252           0.00195       -0.26562        0.35938        0.00000
 BRILLOUIN|   253           0.00195       -0.26562        0.39062        0.00000
 BRILLOUIN|   254           0.00195       -0.26562        0.42188        0.00000
 BRILLOUIN|   255           0.00195       -0.26562        0.45312        0.00000
 BRILLOUIN|   256           0.00195       -0.26562        0.48438        0.00000
 BRILLOUIN|   257           0.00195       -0.23438       -0.48438        0.00000
 BRILLOUIN|   258           0.00195       -0.23438       -0.45312        0.00000
 BRILLOUIN|   259           0.00195       -0.23438       -0.42188        0.00000
 BRILLOUIN|   260           0.00195       -0.23438       -0.39062        0.00000
 BRILLOUIN|   261           0.00195       -0.23438       -0.35938        0.00000
 BRILLOUIN|   262           0.00195       -0.23438       -0.32812        0.00000
 BRILLOUIN|   263           0.00195       -0.23438       -0.29688        0.00000
 BRILLOUIN|   264           0.00195       -0.23438       -0.26562        0.00000
 BRILLOUIN|   265           0.00195       -0.23438       -0.23438        0.00000
 BRILLOUIN|   266           0.00195       -0.23438       -0.20312        0.00000
 BRILLOUIN|   267           0.00195       -0.23438       -0.17188        0.00000
 BRILLOUIN|   268           0.00195       -0.23438       -0.14062        0.00000
 BRILLOUIN|   269           0.00195       -0.23438       -0.10938        0.00000
 BRILLOUIN|   270           0.00195       -0.23438       -0.07812        0.00000
 BRILLOUIN|   271           0.00195       -0.23438       -0.04688        0.00000
 BRILLOUIN|   272           0.00195       -0.23438       -0.01562        0.00000
 BRILLOUIN|   273           0.00195       -0.23438        0.01562        0.00000
 BRILLOUIN|   274           0.00195       -0.23438        0.04688        0.00000
 BRILLOUIN|   275           0.00195       -0.23438        0.07812        0.00000
 BRILLOUIN|   276           0.00195       -0.23438        0.10938        0.00000
 BRILLOUIN|   277           0.00195       -0.23438        0.14062        0.00000
 BRILLOUIN|   278           0.00195       -0.23438        0.17188        0.00000
 BRILLOUIN|   279           0.00195       -0.23438        0.20312        0.00000
 BRILLOUIN|   280           0.00195       -0.23438        0.23438        0.00000
 BRILLOUIN|   281           0.00195       -0.23438        0.26562        0.00000
 BRILLOUIN|   282           0.00195       -0.23438        0.29688        0.00000
 BRILLOUIN|   283           0.00195       -0.23438        0.32812        0.00000
 BRILLOUIN|   284           0.00195       -0.23438        0.35938        0.00000
 BRILLOUIN|   285           0.00195       -0.23438        0.39062        0.00000
 BRILLOUIN|   286           0.00195       -0.23438        0.42188        0.00000
 BRILLOUIN|   287           0.00195       -0.23438        0.45312        0.00000
 BRILLOUIN|   288           0.00195       -0.23438        0.48438        0.00000
 BRILLOUIN|   289           0.00195       -0.20312       -0.48438        0.00000
 BRILLOUIN|   290           0.00195       -0.20312       -0.45312        0.00000
 BRILLOUIN|   291           0.00195       -0.20312       -0.42188        0.00000
 BRILLOUIN|   292           0.00195       -0.20312       -0.39062        0.00000
 BRILLOUIN|   293           0.00195       -0.20312       -0.35938        0.00000
 BRILLOUIN|   294           0.00195       -0.20312       -0.32812        0.00000
 BRILLOUIN|   295           0.00195       -0.20312       -0.29688        0.00000
 BRILLOUIN|   296           0.00195       -0.20312       -0.26562        0.00000
 BRILLOUIN|   297           0.00195       -0.20312       -0.23438        0.00000
 BRILLOUIN|   298           0.00195       -0.20312       -0.20312        0.00000
 BRILLOUIN|   299           0.00195       -0.20312       -0.17188        0.00000
 BRILLOUIN|   300           0.00195       -0.20312       -0.14062        0.00000
 BRILLOUIN|   301           0.00195       -0.20312       -0.10938        0.00000
 BRILLOUIN|   302           0.00195       -0.20312       -0.07812        0.00000
 BRILLOUIN|   303           0.00195       -0.20312       -0.04688        0.00000
 BRILLOUIN|   304           0.00195       -0.20312       -0.01562        0.00000
 BRILLOUIN|   305           0.00195       -0.20312        0.01562        0.00000
 BRILLOUIN|   306           0.00195       -0.20312        0.04688        0.00000
 BRILLOUIN|   307           0.00195       -0.20312        0.07812        0.00000
 BRILLOUIN|   308           0.00195       -0.20312        0.10938        0.00000
 BRILLOUIN|   309           0.00195       -0.20312        0.14062        0.00000
 BRILLOUIN|   310           0.00195       -0.20312        0.17188        0.00000
 BRILLOUIN|   311           0.00195       -0.20312        0.20312        0.00000
 BRILLOUIN|   312           0.00195       -0.20312        0.23438        0.00000
 BRILLOUIN|   313           0.00195       -0.20312        0.26562        0.00000
 BRILLOUIN|   314           0.00195       -0.20312        0.29688        0.00000
 BRILLOUIN|   315           0.00195       -0.20312        0.32812        0.00000
 BRILLOUIN|   316           0.00195       -0.20312        0.35938        0.00000
 BRILLOUIN|   317           0.00195       -0.20312        0.39062        0.00000
 BRILLOUIN|   318           0.00195       -0.20312        0.42188        0.00000
 BRILLOUIN|   319           0.00195       -0.20312        0.45312        0.00000
 BRILLOUIN|   320           0.00195       -0.20312        0.48438        0.00000
 BRILLOUIN|   321           0.00195       -0.17188       -0.48438        0.00000
 BRILLOUIN|   322           0.00195       -0.17188       -0.45312        0.00000
 BRILLOUIN|   323           0.00195       -0.17188       -0.42188        0.00000
 BRILLOUIN|   324           0.00195       -0.17188       -0.39062        0.00000
 BRILLOUIN|   325           0.00195       -0.17188       -0.35938        0.00000
 BRILLOUIN|   326           0.00195       -0.17188       -0.32812        0.00000
 BRILLOUIN|   327           0.00195       -0.17188       -0.29688        0.00000
 BRILLOUIN|   328           0.00195       -0.17188       -0.26562        0.00000
 BRILLOUIN|   329           0.00195       -0.17188       -0.23438        0.00000
 BRILLOUIN|   330           0.00195       -0.17188       -0.20312        0.00000
 BRILLOUIN|   331           0.00195       -0.17188       -0.17188        0.00000
 BRILLOUIN|   332           0.00195       -0.17188       -0.14062        0.00000
 BRILLOUIN|   333           0.00195       -0.17188       -0.10938        0.00000
 BRILLOUIN|   334           0.00195       -0.17188       -0.07812        0.00000
 BRILLOUIN|   335           0.00195       -0.17188       -0.04688        0.00000
 BRILLOUIN|   336           0.00195       -0.17188       -0.01562        0.00000
 BRILLOUIN|   337           0.00195       -0.17188        0.01562        0.00000
 BRILLOUIN|   338           0.00195       -0.17188        0.04688        0.00000
 BRILLOUIN|   339           0.00195       -0.17188        0.07812        0.00000
 BRILLOUIN|   340           0.00195       -0.17188        0.10938        0.00000
 BRILLOUIN|   341           0.00195       -0.17188        0.14062        0.00000
 BRILLOUIN|   342           0.00195       -0.17188        0.17188        0.00000
 BRILLOUIN|   343           0.00195       -0.17188        0.20312        0.00000
 BRILLOUIN|   344           0.00195       -0.17188        0.23438        0.00000
 BRILLOUIN|   345           0.00195       -0.17188        0.26562        0.00000
 BRILLOUIN|   346           0.00195       -0.17188        0.29688        0.00000
 BRILLOUIN|   347           0.00195       -0.17188        0.32812        0.00000
 BRILLOUIN|   348           0.00195       -0.17188        0.35938        0.00000
 BRILLOUIN|   349           0.00195       -0.17188        0.39062        0.00000
 BRILLOUIN|   350           0.00195       -0.17188        0.42188        0.00000
 BRILLOUIN|   351           0.00195       -0.17188        0.45312        0.00000
 BRILLOUIN|   352           0.00195       -0.17188        0.48438        0.00000
 BRILLOUIN|   353           0.00195       -0.14062       -0.48438        0.00000
 BRILLOUIN|   354           0.00195       -0.14062       -0.45312        0.00000
 BRILLOUIN|   355           0.00195       -0.14062       -0.42188        0.00000
 BRILLOUIN|   356           0.00195       -0.14062       -0.39062        0.00000
 BRILLOUIN|   357           0.00195       -0.14062       -0.35938        0.00000
 BRILLOUIN|   358           0.00195       -0.14062       -0.32812        0.00000
 BRILLOUIN|   359           0.00195       -0.14062       -0.29688        0.00000
 BRILLOUIN|   360           0.00195       -0.14062       -0.26562        0.00000
 BRILLOUIN|   361           0.00195       -0.14062       -0.23438        0.00000
 BRILLOUIN|   362           0.00195       -0.14062       -0.20312        0.00000
 BRILLOUIN|   363           0.00195       -0.14062       -0.17188        0.00000
 BRILLOUIN|   364           0.00195       -0.14062       -0.14062        0.00000
 BRILLOUIN|   365           0.00195       -0.14062       -0.10938        0.00000
 BRILLOUIN|   366           0.00195       -0.14062       -0.07812        0.00000
 BRILLOUIN|   367           0.00195       -0.14062       -0.04688        0.00000
 BRILLOUIN|   368           0.00195       -0.14062       -0.01562        0.00000
 BRILLOUIN|   369           0.00195       -0.14062        0.01562        0.00000
 BRILLOUIN|   370           0.00195       -0.14062        0.04688        0.00000
 BRILLOUIN|   371           0.00195       -0.14062        0.07812        0.00000
 BRILLOUIN|   372           0.00195       -0.14062        0.10938        0.00000
 BRILLOUIN|   373           0.00195       -0.14062        0.14062        0.00000
 BRILLOUIN|   374           0.00195       -0.14062        0.17188        0.00000
 BRILLOUIN|   375           0.00195       -0.14062        0.20312        0.00000
 BRILLOUIN|   376           0.00195       -0.14062        0.23438        0.00000
 BRILLOUIN|   377           0.00195       -0.14062        0.26562        0.00000
 BRILLOUIN|   378           0.00195       -0.14062        0.29688        0.00000
 BRILLOUIN|   379           0.00195       -0.14062        0.32812        0.00000
 BRILLOUIN|   380           0.00195       -0.14062        0.35938        0.00000
 BRILLOUIN|   381           0.00195       -0.14062        0.39062        0.00000
 BRILLOUIN|   382           0.00195       -0.14062        0.42188        0.00000
 BRILLOUIN|   383           0.00195       -0.14062        0.45312        0.00000
 BRILLOUIN|   384           0.00195       -0.14062        0.48438        0.00000
 BRILLOUIN|   385           0.00195       -0.10938       -0.48438        0.00000
 BRILLOUIN|   386           0.00195       -0.10938       -0.45312        0.00000
 BRILLOUIN|   387           0.00195       -0.10938       -0.42188        0.00000
 BRILLOUIN|   388           0.00195       -0.10938       -0.39062        0.00000
 BRILLOUIN|   389           0.00195       -0.10938       -0.35938        0.00000
 BRILLOUIN|   390           0.00195       -0.10938       -0.32812        0.00000
 BRILLOUIN|   391           0.00195       -0.10938       -0.29688        0.00000
 BRILLOUIN|   392           0.00195       -0.10938       -0.26562        0.00000
 BRILLOUIN|   393           0.00195       -0.10938       -0.23438        0.00000
 BRILLOUIN|   394           0.00195       -0.10938       -0.20312        0.00000
 BRILLOUIN|   395           0.00195       -0.10938       -0.17188        0.00000
 BRILLOUIN|   396           0.00195       -0.10938       -0.14062        0.00000
 BRILLOUIN|   397           0.00195       -0.10938       -0.10938        0.00000
 BRILLOUIN|   398           0.00195       -0.10938       -0.07812        0.00000
 BRILLOUIN|   399           0.00195       -0.10938       -0.04688        0.00000
 BRILLOUIN|   400           0.00195       -0.10938       -0.01562        0.00000
 BRILLOUIN|   401           0.00195       -0.10938        0.01562        0.00000
 BRILLOUIN|   402           0.00195       -0.10938        0.04688        0.00000
 BRILLOUIN|   403           0.00195       -0.10938        0.07812        0.00000
 BRILLOUIN|   404           0.00195       -0.10938        0.10938        0.00000
 BRILLOUIN|   405           0.00195       -0.10938        0.14062        0.00000
 BRILLOUIN|   406           0.00195       -0.10938        0.17188        0.00000
 BRILLOUIN|   407           0.00195       -0.10938        0.20312        0.00000
 BRILLOUIN|   408           0.00195       -0.10938        0.23438        0.00000
 BRILLOUIN|   409           0.00195       -0.10938        0.26562        0.00000
 BRILLOUIN|   410           0.00195       -0.10938        0.29688        0.00000
 BRILLOUIN|   411           0.00195       -0.10938        0.32812        0.00000
 BRILLOUIN|   412           0.00195       -0.10938        0.35938        0.00000
 BRILLOUIN|   413           0.00195       -0.10938        0.39062        0.00000
 BRILLOUIN|   414           0.00195       -0.10938        0.42188        0.00000
 BRILLOUIN|   415           0.00195       -0.10938        0.45312        0.00000
 BRILLOUIN|   416           0.00195       -0.10938        0.48438        0.00000
 BRILLOUIN|   417           0.00195       -0.07812       -0.48438        0.00000
 BRILLOUIN|   418           0.00195       -0.07812       -0.45312        0.00000
 BRILLOUIN|   419           0.00195       -0.07812       -0.42188        0.00000
 BRILLOUIN|   420           0.00195       -0.07812       -0.39062        0.00000
 BRILLOUIN|   421           0.00195       -0.07812       -0.35938        0.00000
 BRILLOUIN|   422           0.00195       -0.07812       -0.32812        0.00000
 BRILLOUIN|   423           0.00195       -0.07812       -0.29688        0.00000
 BRILLOUIN|   424           0.00195       -0.07812       -0.26562        0.00000
 BRILLOUIN|   425           0.00195       -0.07812       -0.23438        0.00000
 BRILLOUIN|   426           0.00195       -0.07812       -0.20312        0.00000
 BRILLOUIN|   427           0.00195       -0.07812       -0.17188        0.00000
 BRILLOUIN|   428           0.00195       -0.07812       -0.14062        0.00000
 BRILLOUIN|   429           0.00195       -0.07812       -0.10938        0.00000
 BRILLOUIN|   430           0.00195       -0.07812       -0.07812        0.00000
 BRILLOUIN|   431           0.00195       -0.07812       -0.04688        0.00000
 BRILLOUIN|   432           0.00195       -0.07812       -0.01562        0.00000
 BRILLOUIN|   433           0.00195       -0.07812        0.01562        0.00000
 BRILLOUIN|   434           0.00195       -0.07812        0.04688        0.00000
 BRILLOUIN|   435           0.00195       -0.07812        0.07812        0.00000
 BRILLOUIN|   436           0.00195       -0.07812        0.10938        0.00000
 BRILLOUIN|   437           0.00195       -0.07812        0.14062        0.00000
 BRILLOUIN|   438           0.00195       -0.07812        0.17188        0.00000
 BRILLOUIN|   439           0.00195       -0.07812        0.20312        0.00000
 BRILLOUIN|   440           0.00195       -0.07812        0.23438        0.00000
 BRILLOUIN|   441           0.00195       -0.07812        0.26562        0.00000
 BRILLOUIN|   442           0.00195       -0.07812        0.29688        0.00000
 BRILLOUIN|   443           0.00195       -0.07812        0.32812        0.00000
 BRILLOUIN|   444           0.00195       -0.07812        0.35938        0.00000
 BRILLOUIN|   445           0.00195       -0.07812        0.39062        0.00000
 BRILLOUIN|   446           0.00195       -0.07812        0.42188        0.00000
 BRILLOUIN|   447           0.00195       -0.07812        0.45312        0.00000
 BRILLOUIN|   448           0.00195       -0.07812        0.48438        0.00000
 BRILLOUIN|   449           0.00195       -0.04688       -0.48438        0.00000
 BRILLOUIN|   450           0.00195       -0.04688       -0.45312        0.00000
 BRILLOUIN|   451           0.00195       -0.04688       -0.42188        0.00000
 BRILLOUIN|   452           0.00195       -0.04688       -0.39062        0.00000
 BRILLOUIN|   453           0.00195       -0.04688       -0.35938        0.00000
 BRILLOUIN|   454           0.00195       -0.04688       -0.32812        0.00000
 BRILLOUIN|   455           0.00195       -0.04688       -0.29688        0.00000
 BRILLOUIN|   456           0.00195       -0.04688       -0.26562        0.00000
 BRILLOUIN|   457           0.00195       -0.04688       -0.23438        0.00000
 BRILLOUIN|   458           0.00195       -0.04688       -0.20312        0.00000
 BRILLOUIN|   459           0.00195       -0.04688       -0.17188        0.00000
 BRILLOUIN|   460           0.00195       -0.04688       -0.14062        0.00000
 BRILLOUIN|   461           0.00195       -0.04688       -0.10938        0.00000
 BRILLOUIN|   462           0.00195       -0.04688       -0.07812        0.00000
 BRILLOUIN|   463           0.00195       -0.04688       -0.04688        0.00000
 BRILLOUIN|   464           0.00195       -0.04688       -0.01562        0.00000
 BRILLOUIN|   465           0.00195       -0.04688        0.01562        0.00000
 BRILLOUIN|   466           0.00195       -0.04688        0.04688        0.00000
 BRILLOUIN|   467           0.00195       -0.04688        0.07812        0.00000
 BRILLOUIN|   468           0.00195       -0.04688        0.10938        0.00000
 BRILLOUIN|   469           0.00195       -0.04688        0.14062        0.00000
 BRILLOUIN|   470           0.00195       -0.04688        0.17188        0.00000
 BRILLOUIN|   471           0.00195       -0.04688        0.20312        0.00000
 BRILLOUIN|   472           0.00195       -0.04688        0.23438        0.00000
 BRILLOUIN|   473           0.00195       -0.04688        0.26562        0.00000
 BRILLOUIN|   474           0.00195       -0.04688        0.29688        0.00000
 BRILLOUIN|   475           0.00195       -0.04688        0.32812        0.00000
 BRILLOUIN|   476           0.00195       -0.04688        0.35938        0.00000
 BRILLOUIN|   477           0.00195       -0.04688        0.39062        0.00000
 BRILLOUIN|   478           0.00195       -0.04688        0.42188        0.00000
 BRILLOUIN|   479           0.00195       -0.04688        0.45312        0.00000
 BRILLOUIN|   480           0.00195       -0.04688        0.48438        0.00000
 BRILLOUIN|   481           0.00195       -0.01562       -0.48438        0.00000
 BRILLOUIN|   482           0.00195       -0.01562       -0.45312        0.00000
 BRILLOUIN|   483           0.00195       -0.01562       -0.42188        0.00000
 BRILLOUIN|   484           0.00195       -0.01562       -0.39062        0.00000
 BRILLOUIN|   485           0.00195       -0.01562       -0.35938        0.00000
 BRILLOUIN|   486           0.00195       -0.01562       -0.32812        0.00000
 BRILLOUIN|   487           0.00195       -0.01562       -0.29688        0.00000
 BRILLOUIN|   488           0.00195       -0.01562       -0.26562        0.00000
 BRILLOUIN|   489           0.00195       -0.01562       -0.23438        0.00000
 BRILLOUIN|   490           0.00195       -0.01562       -0.20312        0.00000
 BRILLOUIN|   491           0.00195       -0.01562       -0.17188        0.00000
 BRILLOUIN|   492           0.00195       -0.01562       -0.14062        0.00000
 BRILLOUIN|   493           0.00195       -0.01562       -0.10938        0.00000
 BRILLOUIN|   494           0.00195       -0.01562       -0.07812        0.00000
 BRILLOUIN|   495           0.00195       -0.01562       -0.04688        0.00000
 BRILLOUIN|   496           0.00195       -0.01562       -0.01562        0.00000
 BRILLOUIN|   497           0.00195       -0.01562        0.01562        0.00000
 BRILLOUIN|   498           0.00195       -0.01562        0.04688        0.00000
 BRILLOUIN|   499           0.00195       -0.01562        0.07812        0.00000
 BRILLOUIN|   500           0.00195       -0.01562        0.10938        0.00000
 BRILLOUIN|   501           0.00195       -0.01562        0.14062        0.00000
 BRILLOUIN|   502           0.00195       -0.01562        0.17188        0.00000
 BRILLOUIN|   503           0.00195       -0.01562        0.20312        0.00000
 BRILLOUIN|   504           0.00195       -0.01562        0.23438        0.00000
 BRILLOUIN|   505           0.00195       -0.01562        0.26562        0.00000
 BRILLOUIN|   506           0.00195       -0.01562        0.29688        0.00000
 BRILLOUIN|   507           0.00195       -0.01562        0.32812        0.00000
 BRILLOUIN|   508           0.00195       -0.01562        0.35938        0.00000
 BRILLOUIN|   509           0.00195       -0.01562        0.39062        0.00000
 BRILLOUIN|   510           0.00195       -0.01562        0.42188        0.00000
 BRILLOUIN|   511           0.00195       -0.01562        0.45312        0.00000
 BRILLOUIN|   512           0.00195       -0.01562        0.48438        0.00000
 *******************************************************************************

 *******************************************************************************
 *******************************************************************************
 **                                                                           **
 **     #####                         ##              ##                      **
 **    ##   ##            ##          ##              ##                      **
 **   ##     ##                       ##            ######                    **
 **   ##     ##  ##   ##  ##   #####  ##  ##   ####   ##    #####    #####    **
 **   ##     ##  ##   ##  ##  ##      ## ##   ##      ##   ##   ##  ##   ##   **
 **   ##  ## ##  ##   ##  ##  ##      ####     ###    ##   ######   ######    **
 **    ##  ###   ##   ##  ##  ##      ## ##      ##   ##   ##       ##        **
 **     #######   #####   ##   #####  ##  ##  ####    ##    #####   ##        **
 **           ##                                                    ##        **
 **                                                                           **
 **                                                ... make the atoms dance   **
 **                                                                           **
 **            Copyright (C) by CP2K developers group (2000-2025)             **
 **                      J. Chem. Phys. 152, 194103 (2020)                    **
 **                                                                           **
 *******************************************************************************

 DFT| Spin restricted Kohn-Sham (RKS) calculation                            RKS
 DFT| Multiplicity                                                             1
 DFT| Number of spin states                                                    1
 DFT| Charge                                                                   0
 DFT| Self-interaction correction (SIC)                                       NO
 DFT| Cutoffs: density                                              1.000000E-10
 DFT|          gradient                                             1.000000E-10
 DFT|          tau                                                  1.000000E-10
 DFT|          cutoff_smoothing_range                               0.000000E+00
 DFT| XC density smoothing                                                  NONE
 DFT| XC derivatives                                                          PW

 FUNCTIONAL| PBE:
 FUNCTIONAL| J.P.Perdew, K.Burke, M.Ernzerhof, Phys. Rev. Letter, vol. 77, n 18,
 FUNCTIONAL|  pp. 3865-3868, (1996) {spin unpolarized}                          


 QS| Method:                                                                GAPW
 QS| Density plane wave grid type                        NON-SPHERICAL FULLSPACE
 QS| Number of grid levels:                                                    4
 QS| Density cutoff [a.u.]:                                                250.0
 QS| Multi grid cutoff [a.u.]: 1) grid level                               250.0
 QS|                           2) grid level                                83.3
 QS|                           3) grid level                                27.8
 QS|                           4) grid level                                 9.3
 QS| Grid level progression factor:                                          3.0
 QS| Relative density cutoff [a.u.]:                                        50.0
 QS| Interaction thresholds: eps_pgf_orb:                                1.0E-12
 QS|                         eps_filter_matrix:                          0.0E+00
 QS|                         eps_core_charge:                            1.0E-14
 QS|                         eps_rho_gspace:                             1.0E-12
 QS|                         eps_rho_rspace:                             1.0E-12
 QS|                         eps_gvg_rspace:                             1.0E-06
 QS|                         eps_ppl:                                    1.0E-02
 QS|                         eps_ppnl:                                   1.0E-08
 QS| GAPW|      One center basis from orbital basis primitives
 QS| GAPW|                   eps_fit:                                    1.0E-04
 QS| GAPW|                   eps_iso:                                    1.0E-12
 QS| GAPW|                   eps_svd:                                    1.0E-08
 QS| GAPW|                   eps_cpc:                                    1.0E-12
 QS| GAPW|   atom-r-grid: quadrature:                                     GC_LOG
 QS| GAPW|      atom-s-grid:  max l :                                          4
 QS| GAPW|      max_l_rho0 :                                                   2
 QS| GAPW|      At least one kind is NOT PAW, i.e. it has only soft AO 
 QS| GAPW|      The NOT PAW atoms are treated fully GPW


 ATOMIC KIND INFORMATION

  1. Atomic kind: W                                     Number of atoms:       1

     Orbital Basis Set                                         SZV-MOLOPT-SR-GTH

       Number of orbital shell sets:                                           1
       Number of orbital shells:                                               4
       Number of primitive Cartesian functions:                                6
       Number of Cartesian basis functions:                                   11
       Number of spherical basis functions:                                   10
       Norm type:                                                              2

       Normalised Cartesian orbitals:

                        Set   Shell   Orbital            Exponent    Coefficient

                          1       1    2s                3.103254       0.529378
                                                         2.893835       0.343543
                                                         1.106151      -0.674409
                                                         0.501100      -0.158409
                                                         0.214447      -0.013622
                                                         0.074663      -0.014288

                          1       2    3s                3.103254      -0.097470
                                                         2.893835       0.569553
                                                         1.106151      -0.477566
                                                         0.501100      -0.211692
                                                         0.214447       0.068377
                                                         0.074663       0.097560

                          1       3    3px               3.103254       6.695543
                                                         2.893835      -5.556394
                                                         1.106151      -0.965855
                                                         0.501100      -0.267354
                                                         0.214447      -0.010443
                                                         0.074663       0.000342
                          1       3    3py               3.103254       6.695543
                                                         2.893835      -5.556394
                                                         1.106151      -0.965855
                                                         0.501100      -0.267354
                                                         0.214447      -0.010443
                                                         0.074663       0.000342
                          1       3    3pz               3.103254       6.695543
                                                         2.893835      -5.556394
                                                         1.106151      -0.965855
                                                         0.501100      -0.267354
                                                         0.214447      -0.010443
                                                         0.074663       0.000342

                          1       4    4dx2              3.103254      -0.912708
                                                         2.893835       1.052044
                                                         1.106151       0.570193
                                                         0.501100       0.198591
                                                         0.214447       0.042391
                                                         0.074663       0.002139
                          1       4    4dxy              3.103254      -1.580857
                                                         2.893835       1.822194
                                                         1.106151       0.987603
                                                         0.501100       0.343970
                                                         0.214447       0.073424
                                                         0.074663       0.003705
                          1       4    4dxz              3.103254      -1.580857
                                                         2.893835       1.822194
                                                         1.106151       0.987603
                                                         0.501100       0.343970
                                                         0.214447       0.073424
                                                         0.074663       0.003705
                          1       4    4dy2              3.103254      -0.912708
                                                         2.893835       1.052044
                                                         1.106151       0.570193
                                                         0.501100       0.198591
                                                         0.214447       0.042391
                                                         0.074663       0.002139
                          1       4    4dyz              3.103254      -1.580857
                                                         2.893835       1.822194
                                                         1.106151       0.987603
                                                         0.501100       0.343970
                                                         0.214447       0.073424
                                                         0.074663       0.003705
                          1       4    4dz2              3.103254      -0.912708
                                                         2.893835       1.052044
                                                         1.106151       0.570193
                                                         0.501100       0.198591
                                                         0.214447       0.042391
                                                         0.074663       0.002139

     RI Auxiliary Basis Set             RI_aug-SZV-MOLOPT-GTH-tier-2_N_RI_064_s_

       Number of orbital shell sets:                                          16
       Number of orbital shells:                                              16
       Number of primitive Cartesian functions:                               16
       Number of Cartesian basis functions:                                   89
       Number of spherical basis functions:                                   64
       Norm type:                                                              2

       Normalised Cartesian orbitals:

                        Set   Shell   Orbital            Exponent    Coefficient

                          1       1    1s                0.187749       0.203280

                          2       1    7px               0.230391       0.227522
                          2       1    7py               0.230391       0.227522
                          2       1    7pz               0.230391       0.227522

                          3       1   10dx2              0.280505       0.177953
                          3       1   10dxy              0.280505       0.308223
                          3       1   10dxz              0.280505       0.308223
                          3       1   10dy2              0.280505       0.177953
                          3       1   10dyz              0.280505       0.308223
                          3       1   10dz2              0.280505       0.177953

                          4       1    2s                0.362321       0.332836

                          5       1   13fx3              0.427377       0.217410
                          5       1   13fx2y             0.427377       0.486142
                          5       1   13fx2z             0.427377       0.486142
                          5       1   13fxy2             0.427377       0.486142
                          5       1   13fxyz             0.427377       0.842023
                          5       1   13fxz2             0.427377       0.486142
                          5       1   13fy3              0.427377       0.217410
                          5       1   13fy2z             0.427377       0.486142
                          5       1   13fyz2             0.427377       0.486142
                          5       1   13fz3              0.427377       0.217410

                          6       1   16hx5              0.603702       0.143886
                          6       1   16hx4y             0.603702       0.431657
                          6       1   16hx4z             0.603702       0.431657
                          6       1   16hx3y2            0.603702       0.659367
                          6       1   16hx3yz            0.603702       1.142057
                          6       1   16hx3z2            0.603702       0.659367
                          6       1   16hx2y3            0.603702       0.659367
                          6       1   16hx2y2z           0.603702       1.474389
                          6       1   16hx2yz2           0.603702       1.474389
                          6       1   16hx2z3            0.603702       0.659367
                          6       1   16hxy4             0.603702       0.431657
                          6       1   16hxy3z            0.603702       1.142057
                          6       1   16hxy2z2           0.603702       1.474389
                          6       1   16hxyz3            0.603702       1.142057
                          6       1   16hxz4             0.603702       0.431657
                          6       1   16hy5              0.603702       0.143886
                          6       1   16hy4z             0.603702       0.431657
                          6       1   16hy3z2            0.603702       0.659367
                          6       1   16hy2z3            0.603702       0.659367
                          6       1   16hyz4             0.603702       0.431657
                          6       1   16hz5              0.603702       0.143886

                          7       1    3s                0.704421       0.548004

                          8       1   11dx2              0.825654       1.177079
                          8       1   11dxy              0.825654       2.038761
                          8       1   11dxz              0.825654       2.038761
                          8       1   11dy2              0.825654       1.177079
                          8       1   11dyz              0.825654       2.038761
                          8       1   11dz2              0.825654       1.177079

                          9       1    8px               0.843187       1.151715
                          9       1    8py               0.843187       1.151715
                          9       1    8pz               0.843187       1.151715

                         10       1    9px               1.114177       1.631673
                         10       1    9py               1.114177       1.631673
                         10       1    9pz               1.114177       1.631673

                         11       1   15gx4              1.347135       2.525319
                         11       1   15gx3y             1.347135       6.681365
                         11       1   15gx3z             1.347135       6.681365
                         11       1   15gx2y2            1.347135       8.625606
                         11       1   15gx2yz            1.347135      14.939987
                         11       1   15gx2z2            1.347135       8.625606
                         11       1   15gxy3             1.347135       6.681365
                         11       1   15gxy2z            1.347135      14.939987
                         11       1   15gxyz2            1.347135      14.939987
                         11       1   15gxz3             1.347135       6.681365
                         11       1   15gy4              1.347135       2.525319
                         11       1   15gy3z             1.347135       6.681365
                         11       1   15gy2z2            1.347135       8.625606
                         11       1   15gyz3             1.347135       6.681365
                         11       1   15gz4              1.347135       2.525319

                         12       1    4s                1.373078       0.904027

                         13       1   14fx3              1.992867       6.946737
                         13       1   14fx2y             1.992867      15.533376
                         13       1   14fx2z             1.992867      15.533376
                         13       1   14fxy2             1.992867      15.533376
                         13       1   14fxyz             1.992867      26.904596
                         13       1   14fxz2             1.992867      15.533376
                         13       1   14fy3              1.992867       6.946737
                         13       1   14fy2z             1.992867      15.533376
                         13       1   14fyz2             1.992867      15.533376
                         13       1   14fz3              1.992867       6.946737

                         14       1   12dx2              2.080415       5.931598
                         14       1   12dxy              2.080415      10.273830
                         14       1   12dxz              2.080415      10.273830
                         14       1   12dy2              2.080415       5.931598
                         14       1   12dyz              2.080415      10.273830
                         14       1   12dz2              2.080415       5.931598

                         15       1    5s                2.666326       1.487117

                         16       1    6s                5.175921       2.445687

       Atomic covalent radius [Angstrom]:                                  1.300

       Atomic van der Waals radius [Angstrom]:                             1.670

     GTH Potential information for                                   GTH-PBE-q14

       Description:                       Goedecker-Teter-Hutter pseudopotential
                                           Goedecker et al., PRB 54, 1703 (1996)
                                          Hartwigsen et al., PRB 58, 3641 (1998)
                                                      Krack, TCA 114, 145 (2005)

       Gaussian exponent of the core charge distribution:               1.714678
       Electronic configuration (s p d ...):                           4   6   4

       Parameters of the local part of the GTH pseudopotential:

                          rloc        C1          C2          C3          C4
                        0.540000   13.414811   -2.213456

       Parameters of the non-local part of the GTH (SOC) pseudopotential:

                   l      r(l)      h(i,j,l)
                                    k(i,j,l)
                   0    0.397028   -4.141211    3.835423    2.233179
                                    3.835423   -1.319244   -5.766044
                                    2.233179   -5.766044    4.576656
                   1    0.353531   -7.456236    8.112326    0.000000
                                    8.112326   -9.598634    0.000000
                                    0.000000    0.000000    0.000000
                                    1.424856   -0.047910   -0.233482
                                   -0.047910   -0.332024    0.552519
                                   -0.233482    0.552519   -0.392678
                   2    0.412107   -0.954661   -1.067446
                                   -1.067446    1.210370
                                    0.070160    0.013189
                                    0.013189   -0.014954

  2. Atomic kind: Se                                    Number of atoms:       2

     Orbital Basis Set                                         SZV-MOLOPT-SR-GTH

       Number of orbital shell sets:                                           1
       Number of orbital shells:                                               2
       Number of primitive Cartesian functions:                                4
       Number of Cartesian basis functions:                                    4
       Number of spherical basis functions:                                    4
       Norm type:                                                              2

       Normalised Cartesian orbitals:

                        Set   Shell   Orbital            Exponent    Coefficient

                          1       1    2s                1.465689       0.426298
                                                         1.029752      -0.111246
                                                         0.303575      -0.265065
                                                         0.107173      -0.034327

                          1       2    3px               1.465689       0.672773
                                                         1.029752      -0.499569
                                                         0.303575      -0.202949
                                                         0.107173      -0.032222
                          1       2    3py               1.465689       0.672773
                                                         1.029752      -0.499569
                                                         0.303575      -0.202949
                                                         0.107173      -0.032222
                          1       2    3pz               1.465689       0.672773
                                                         1.029752      -0.499569
                                                         0.303575      -0.202949
                                                         0.107173      -0.032222

     RI Auxiliary Basis Set             RI_aug-SZV-MOLOPT-GTH-tier-2_N_RI_028_s_

       Number of orbital shell sets:                                          10
       Number of orbital shells:                                              10
       Number of primitive Cartesian functions:                               10
       Number of Cartesian basis functions:                                   33
       Number of spherical basis functions:                                   28
       Norm type:                                                              2

       Normalised Cartesian orbitals:

                        Set   Shell   Orbital            Exponent    Coefficient

                          1       1    1s                0.207146       0.218835

                          2       1    8dx2              0.256453       0.152115
                          2       1    8dxy              0.256453       0.263472
                          2       1    8dxz              0.256453       0.263472
                          2       1    8dy2              0.256453       0.152115
                          2       1    8dyz              0.256453       0.263472
                          2       1    8dz2              0.256453       0.152115

                          3       1    6px               0.318238       0.340706
                          3       1    6py               0.318238       0.340706
                          3       1    6pz               0.318238       0.340706

                          4       1    2s                0.375428       0.341826

                          5       1   10fx3              0.382712       0.169596
                          5       1   10fx2y             0.382712       0.379229
                          5       1   10fx2z             0.382712       0.379229
                          5       1   10fxy2             0.382712       0.379229
                          5       1   10fxyz             0.382712       0.656844
                          5       1   10fxz2             0.382712       0.379229
                          5       1   10fy3              0.382712       0.169596
                          5       1   10fy2z             0.382712       0.379229
                          5       1   10fyz2             0.382712       0.379229
                          5       1   10fz3              0.382712       0.169596

                          6       1    7px               0.421133       0.483575
                          6       1    7py               0.421133       0.483575
                          6       1    7pz               0.421133       0.483575

                          7       1    9dx2              0.504249       0.496635
                          7       1    9dxy              0.504249       0.860198
                          7       1    9dxz              0.504249       0.860198
                          7       1    9dy2              0.504249       0.496635
                          7       1    9dyz              0.504249       0.860198
                          7       1    9dz2              0.504249       0.496635

                          8       1    3s                0.730173       0.562962

                          9       1    4s                1.333344       0.884335

                         10       1    5s                2.347541       1.351668

       Atomic covalent radius [Angstrom]:                                  1.160

       Atomic van der Waals radius [Angstrom]:                             1.900

     GTH Potential information for                                    GTH-PBE-q6

       Description:                       Goedecker-Teter-Hutter pseudopotential
                                           Goedecker et al., PRB 54, 1703 (1996)
                                          Hartwigsen et al., PRB 58, 3641 (1998)
[...]
 do_general_diag_kp                  66  6.0    0.324    0.341  718.143  718.192
 compute_chi                          1  7.0    0.007    0.024  677.129  677.235
 dbt_total                      2602967  9.6    2.049    4.074  319.147  667.728
 dbt_contract                   1048409 10.4    4.273    8.982  286.225  600.138
 dbcsr_desymmetrize_deep         419425  8.4    4.243    5.027  593.582  595.168
 dbt_tas_multiply               1286296 12.9    0.535    1.140  258.863  549.677
 dbt_tas_total                  1286296 13.9   22.643   48.475  258.523  548.987
 mp_alltoall_d11v               2710239 10.5  502.976  504.535  502.976  504.535
 G_occ_vir                          121  8.0    0.260    0.294  502.764  503.860
 mp_alltoall_i11v               1871389 10.4  489.390  489.511  489.390  489.511
 fm_to_local_tensor              146072  9.0    2.405    2.730  404.285  404.299
 copy_fm_to_dbcsr                213795  9.4    0.480    0.506  338.707  385.552
 parallel_gemm_cfm               280952  8.9    0.151    0.186  344.626  349.556
 parallel_gemm_cfm_cosma         280952  9.9  344.475  349.403  344.475  349.403
 local_dbt_to_global_fm              91  8.0    0.145    0.159  315.845  315.849
 mp_alltoall_i22                 903413 10.1  218.299  265.203  218.299  265.203
 hybrid_alltoall_any             419425  9.4    1.170    1.213  231.241  231.859
 dbt_tas_estimate_result_nze     643148 13.4   10.895   24.201  108.968  230.314
 contract_to_Sigma                   74  8.0    2.937    4.363  107.205  219.717
 compute_QP_energies                  1  7.0    0.040    0.062  206.008  206.036
 trafo_to_k_and_nn                71492  8.0    0.201    0.239  205.884  205.908
 add_V_L                         327680 10.0    2.991  193.129    2.991  193.129
 contract_M_occ_vir_to_chi           44  8.0    5.024    7.279   62.975  184.962
 contract_W                          39  8.0    0.943    1.810   94.615  159.937
 global_matrix_to_local_matrix   146072 10.0    2.161    3.037  141.668  158.512
 reshape_mm_small               1286296 14.9   37.000   78.480   67.626  138.924
 G_times_3c                        7728  8.0    1.285    2.358   73.067  130.529
 kpoint_density_transform            66  7.0    0.100    0.106  124.479  124.496
 contract_to_Sigma_3c_x_G        205690  9.0    0.148    0.255   67.693  120.551
 dbt_tas_dbm                    1286296 14.9    0.471    0.961   52.174  117.802
 dbm_multiply                   1286296 16.9   51.166  115.658   51.166  115.658
 fm_MWM_R_t_to_local_tensor_W_R      30  8.0    0.020    0.023  110.415  110.422
 get_V_tr_R                          34  9.0    0.079    0.086  104.407  104.489
 fm_to_local_array                  934  8.1   27.402   28.611  101.631  101.917
 mp_sum_dm                       655425 10.0   90.287   99.294   90.287   99.294
 mult_W_with_Minv                    30  8.0    0.336    0.356   99.021   99.069
 contract_to_Sigma_contract        6888  9.0    1.097    1.889   35.461   93.058
 mp_waitall_1                   1485134 11.2   68.109   85.349   68.109   85.349
 send_data                       146072 11.0    0.092    0.103   68.974   85.142
 communicate_buffer              146072 12.0    1.566   18.466   68.882   85.051
 dbt_tas_create_split           3908345 15.7    1.129    2.287   39.901   81.308
 dbt_tas_create_split_rows_or_c 3908345 16.7    4.054    8.228   38.772   79.028
 mp_sum_dm3                        1061  9.0   73.051   76.250   73.051   76.250
 reshape_mm_compatible          1286296 14.9    5.087   10.909   34.720   72.432
 dbt_copy                       1651179 10.9    3.555    6.893   34.744   69.876
 add_rs_to_ikp                  *******  9.9   65.143   67.579   65.143   67.579
 add_ikp_to_rs                  ******* 10.0   57.584   61.374   57.584   61.374
 trafo_rs_to_ikp                   5368  8.1    1.910    2.228   57.610   60.284
 dbt_tas_distribution_new       3251230 15.2   16.638   30.782   32.344   59.847
 mp_cart_create                 6690044 15.8   40.835   56.334   42.697   59.772
 rsmat_to_kp                       7032  7.2    0.050    0.052   59.374   59.480
 dbt_tas_mm_2                    523680 15.9    0.163    0.501   18.740   58.135
 local_dbt_to_global_mat          87451  9.0    0.298    0.314   49.245   56.407
 mp_sum_i                       1239132 15.1   54.907   55.365   54.907   55.365
 send_sizes_1                    146072 11.0    0.084    0.092   54.695   55.234
 cp_fm_start_copy_general        202752  7.3    0.853    1.519   54.747   54.876
 fm_add_ikp_to_rs                123904  9.0   35.562   36.639   52.077   53.600
 change_split                   1736202 15.4    1.666    3.608   22.734   49.394
 mp_allgather_i                  405504  8.3   48.293   48.889   48.293   48.889
 add_ikp_to_all_rs                 4924  8.0    1.709    1.994   42.789   46.594
 dbt_reshape                     974017 11.7   15.711   31.564   21.789   43.931
 mp_cart_sub                     540465 10.1   42.505   42.587   42.505   42.587
 dbt_tas_reshape                1479538 15.4    3.298    6.583   21.632   42.196
 dbt_tas_mm_3T                   467924 16.1    0.152    0.279   21.517   39.603
 dos_pdos_ldos                        1  5.0    0.004    0.005   37.600   37.746
 compute_Sigma_x                      1  7.0    0.002    0.002   36.856   36.900
 dbt_tas_replicate              1286296 14.9    9.164   16.805   19.060   36.853
 fm_trafo_rs_to_ikp               71492  9.0   20.836   21.794   30.279   31.215
 get_t_3c_int                    706196  9.3    1.045    1.922   17.270   30.667
 SOC_ev                            2344  6.0    0.012    0.014   30.121   30.201
 soc                                  1  5.0    0.000    0.000   30.015   30.015
 H_KS_spinor_kp                       1  6.0    0.007    0.008   30.001   30.004
 create_and_init_bs_env_for_gw        1  6.0    0.016    0.021   29.233   29.248
 create_and_init_bs_env               1  5.0    0.000    0.002   27.893   27.908
 compute_cfm_mo_coeff_kp_and_ei       1  6.0    0.002    0.003   27.877   27.878
 mp_comm_dup                    3265201 18.2   11.708   24.061   12.529   25.795
 dbt_remap                        96621 11.0    5.477    9.373   14.623   24.836
 power                            10204  8.0    1.610    1.788   24.046   24.812
 get_data                        146072 11.0    4.617   24.508    4.831   24.754
 diag_complex                     10204  9.0   22.436   23.086   22.436   23.086
 dbcsr_finalize                 1881583 11.0    3.533    4.087   18.226   22.020
 mp_sum_dv                        78727  8.9   16.400   20.921   16.400   20.921
 cp_cfm_heevd                      4820  7.5    0.003    0.003   20.686   20.856
 cp_cfm_heevd_base                 4820  8.5   20.683   20.853   20.683   20.853
 local_matrix_to_global_matrix    87451 10.0    0.162    0.172   13.125   20.596
 dbt_tas_mm_1N                   294692 15.5    0.085    0.156   11.348   20.127
 mp_comm_free                   ******* 14.7   10.461   18.567   10.461   18.567
 convert_to_new_pgrid           3858888 14.9    3.393    7.160    8.651   18.506
 mp_comm_split_direct           3908349 17.7    8.145   16.585    8.724   17.803
 dbt_tas_reserve_blocks_index   4577281 15.5    1.667    3.166    9.099   17.541
 dbm_reserve_blocks             5863577 16.4    8.909   17.458    8.909   17.458
 dbt_create_matrix               146072 10.0    0.828    0.870   14.837   15.842
 dbt_distribution_new_expert     485396 11.8    2.101    2.513   12.345   14.821
 dbt_tas_reshape_buffer_fill    1479538 16.4    7.615   14.289    7.615   14.289
 dbt_tas_reshape_buffer_obtain  1479538 16.4    4.645    9.193    7.222   14.214
 mp_alltoall_i                  4947394 15.0   12.724   14.116   12.724   14.116
 dbt_permute_index              2806840 12.1    5.717   11.601    6.504   13.330
 dbt_tas_merge                   523680 14.9    3.033    9.609    4.076   13.011
 dbt_tas_create_new             4937976 15.0    6.329   12.768    6.329   12.768
 trafo_V_xc_R_to_kp                   1  7.0    0.004    0.004   11.955   11.965
 dbcsr_filter_anytype            655661 11.0    1.505    1.578    7.834   11.637
 dbcsr_merge_all                 712585 11.7    7.082    9.120    9.420   11.549
 dbm_copy                       2572592 15.9    5.258   11.429    5.258   11.429
 dbt_align_index                1929444 11.4    0.867    1.820    5.158   10.731
 get_Minv_Vtr_Minv_R                  1  8.0    0.015    0.017   10.233   10.244
 reshape_mm_template             193242 15.5    3.887    6.599    5.910   10.067
 compute_3c_integrals                 1  7.0    0.027    0.034    9.958    9.968
 build_3c_integrals                   1  8.0    8.831    9.257    9.397    9.803
 dbt_destroy                    4929767 10.0    6.945    8.268    7.705    9.154
 dbt_tas_reserve_blocks_templat 1789595 13.9    1.577    2.941    4.896    9.120
 add_R                          *******  9.3    4.882    6.480    6.709    9.018
 dbt_tas_mp_comm                 739769 13.0    0.516    1.050    4.378    8.909
 destroy_t_2d                        62  8.0    1.958    3.039    6.302    8.059
 set_blocks                       87451 11.0    1.949    3.482    3.940    7.977
 dbt_tas_copy                    503299 12.2    3.000    4.798    5.015    7.867
 dbt_create_new                  242698 11.3    1.298    1.596    6.492    7.854
 dbt_reserve_blocks_index       1308148 13.3    0.662    1.207    4.034    7.817
 send_sizes_2                    146072 11.0    0.080    0.089    7.300    7.588
 dbt_reserve_blocks_index_array 1147880 12.8    0.397    0.809    3.413    7.583
 dbt_create_3c_R1_R2                 62  8.0    1.509    1.646    7.028    7.376
 compute_proj_mo_on_kind           1172  6.0    0.013    0.016    7.235    7.325
 cp_cfm_geeig_canon                1172  7.0    0.004    0.004    6.955    6.962
 mp_isend_dv                    ******* 12.2    0.353    6.854    0.353    6.854
 mp_isend_im2                   ******* 13.0    0.241    6.580    0.241    6.580
 mp_cart_get                    ******* 15.8    3.175    6.518    3.175    6.518
 dbt_create_template            1880229  9.0    5.974    6.250    5.974    6.250
 dbt_copy_nocomm                 173863 11.0    1.291    4.222    1.890    6.204
 mp_comm_size                   ******* 16.1    2.838    5.899    2.838    5.899
 dbm_add                        1286296 14.9    2.866    5.712    2.866    5.712
 dbt_communicate_buffer          974017 12.7    2.677    5.453    2.677    5.453
 dbt_pgrid_create_expert         485399 12.8    0.467    0.567    4.423    5.412
 is_cell_in_index_to_cell       *******  9.7    3.265    5.302    3.265    5.302
 heuristic_RI_regularization          1  7.0    0.000    0.001    5.030    5.031
 comm_size                        87451 11.0    0.076    0.083    4.706    5.006
 dbcsr_work_create              1132010 10.3    2.979    3.577    4.280    4.929
 mp_comm_rank                   ******* 16.1    2.200    4.740    2.200    4.740
 dbcsr_create_new               1579355  9.9    3.451    3.716    4.311    4.583
 dbcsr_iterator_start           4060589 10.9    3.643    3.749    4.376    4.542
 dbt_nd_mp_comm                  242693 11.3    0.265    0.327    3.554    4.482
 rskp_transform                   74616  7.1    0.101    4.417    0.101    4.417
 dbm_filter                     2031442 14.7    1.984    4.318    1.984    4.318
 mp_bcast_iv                     811222  8.3    3.825    4.139    3.825    4.139
 dbcsr_work_destroy_all         1132010 11.2    2.090    2.552    3.010    3.663
 copy_fm_to_dbcsr_bc             213795 10.4    0.989    1.041    3.484    3.655
 dbt_tas_communicate_buffer     2765834 17.2    1.456    3.501    1.456    3.501
 comm_data                        87451 11.0    0.159    0.769    0.816    3.313
 dbcsr_data_release             ******* 11.7    2.740    3.179    2.740    3.179
 fill_buffer                      87451 11.0    2.345    2.960    2.470    3.093
 dbt_tas_reshape_communicate_bu 1479538 16.4    0.414    0.956    1.321    2.814
 dbcsr_iterator_stop            4060589 10.9    2.098    2.246    2.614    2.767
 reserve_blocks                  146072 11.0    0.351    0.381    2.232    2.761
 mp_sum_l                       7502116 15.0    1.367    2.721    1.367    2.721
 qs_ks_update_qs_env                 66  5.0    0.000    0.000    2.639    2.683
 dbcsr_data_new                 ******* 11.2    2.438    2.579    2.438    2.579
 dbt_copy_matrix_to_tensor       146072 10.0    0.795    0.850    2.448    2.540
 dbcsr_destroy                  1472722  9.6    1.238    1.294    2.415    2.519
 dbm_scale                      1668710 14.4    1.112    2.500    1.112    2.500
 dbt_tas_reshape_get_coord      1479538 16.4    1.201    2.482    1.201    2.482
 qs_ks_build_kohn_sham_matrix        69  7.0    0.016    0.021    2.343    2.401
 build_2c_integrals                  34 10.0    0.052    1.232    0.354    2.318
 rebuild_ks_matrix                   66  6.0    0.000    0.000    2.245    2.288
 mp_waitall_2                    174902 12.0    0.612    2.137    0.612    2.137
 dbt_reserve_blocks_template     173863 12.0    0.106    0.351    0.599    2.018
 transform_dmat                   33792  8.0    0.042    1.990    0.042    1.990
 write_kpoints_restart               66  5.0    0.002    0.112    1.887    1.907
 transfer_pw2rs                     346 10.6    0.002    0.003    1.682    1.738
 transfer_rs2pw                     339  8.4    0.002    0.003    1.651    1.730
 mp_bcast_im                     405504  8.3    1.528    1.717    1.528    1.717
 qs_rho_update_rho_low               67  5.0    0.001    0.001    1.657    1.659
 calculate_rho_elec                  67  6.0    0.001    0.002    1.655    1.657
 sum_up_and_integrate                69  8.0    0.003    0.008    0.532    1.624
 integrate_v_rspace                  69  9.0    0.001    0.004    0.528    1.622
 transfer_rs2pw_250                 138 10.0    0.122    0.141    1.505    1.598
 mp_sendrecv_dv                   86445 10.4    1.491    1.580    1.491    1.580
 dbcsr_reserve_blocks            583849 12.2    0.898    1.260    1.141    1.568
 transfer_pw2rs_250                 139 11.0    0.113    0.136    1.496    1.561
 tree_to_linear_d                572927 12.7    1.400    1.548    1.400    1.548
 write_SOC_eigenvalues              148  6.0    0.006    1.513    0.006    1.513
 dbt_create_2c_R                     98  8.0    0.653    1.190    0.960    1.493
 copy_dbcsr_to_fm_bc             270193  9.1    0.675    0.726    1.435    1.486
 dbt_tas_reshape_alltoall       1479538 16.4    0.377    0.800    0.702    1.451
 density_rs2pw                       67  7.0    0.001    0.001    1.397    1.438
 analyt_conti_and_print            1172  8.0    0.007    1.398    0.047    1.435
 dbcsr_set                      1528833 10.5    0.723    0.773    1.252    1.406
 dbt_reserve_blocks_matrix_to_t  146072 11.0    0.397    0.433    1.316    1.383
 integrate_vhg0_rspace               69  8.0    0.001    0.001    1.290    1.342
 quick_finalize                  419425 10.4    0.614    0.780    1.003    1.328
 get_coord                        87451 11.0    0.601    0.705    1.031    1.310
 dbt_distribution_destroy        485396 11.8    0.829    1.032    1.047    1.295
 mp_bcast_i                     3908848 17.7    0.570    1.225    0.570    1.225
 dbcsr_copy                      174356 10.2    0.343    0.723    0.833    1.201
 dbt_tas_merge_communicate_buff  523680 15.9    0.101    0.316    0.282    1.165
 dbt_tas_replicate_communicate_  762616 15.9    0.250    0.450    0.618    1.157
 grid_collocate_task_list            67  7.0    0.252    1.128    0.252    1.128
 fill_mat_local                  146072 11.0    0.752    0.947    0.924    1.120
 grid_integrate_task_list            69 10.0    0.013    1.104    0.013    1.104
 mp_dims_create                 3251227 13.9    0.585    1.090    0.585    1.090
 create_qs_kind_set                   1  2.0    0.000    0.002    1.021    1.083
 read_qs_kind                         2  3.0    0.455    0.474    1.020    1.083
 mp_cart_rank                   3051312 15.9    0.601    1.073    0.601    1.073
 dbcsr_reserve_all_blocks        301246 11.6    0.239    0.258    0.780    1.046
 dbt_copy_tensor_to_matrix        87451 10.0    0.285    0.350    0.887    0.993
 compute_V_xc                         1  7.0    0.000    0.000    0.922    0.935
 dbcsr_distribution_new          484027 10.1    0.687    0.852    0.687    0.852
 dbcsr_iterator_seek            4060589 11.9    0.732    0.850    0.732    0.850
 ab_contract                    1232384 11.0    0.012    0.818    0.012    0.818
 add_cfm_submat                   11720  7.0    0.044    0.045    0.588    0.808
 cp_fm_to_fm_submat               23440  8.0    0.528    0.747    0.528    0.747
 dbt_buffer_get_index           2765834 16.7    0.325    0.682    0.325    0.682
 dbcsr_zero                     1528833 11.5    0.529    0.679    0.529    0.679
 add_to_DOS_PDOS                   4688  6.5    0.653    0.678    0.653    0.678
 mp_sum_iv                         2368  9.0    0.394    0.666    0.394    0.666
 dbcsr_sort_indices             1119994 12.6    0.330    0.666    0.330    0.666
 dbt_tas_replicate_alltoall      762616 15.9    0.215    0.390    0.368    0.654
 parser_read_line                207321  4.0    0.030    0.034    0.566    0.625
 parser_read_line_low               213  5.0    0.008    0.172    0.536    0.595
 setup_parallelization_Delta_R        1  7.0    0.000    0.000    0.589    0.590
 broadcast_input_information        213  6.0    0.032    0.036    0.528    0.587
 dbcsr_make_index_exist         1579355 10.9    0.546    0.587    0.546    0.587
 compute_n_tensor_ops_Delta_R         1  8.0    0.125    0.270    0.586    0.586
 dbt_tas_merge_alltoall          523680 15.9    0.104    0.322    0.186    0.584
 mp_max_i                       2097281 11.3    0.277    0.561    0.277    0.561
 setup_cells_3c                       1  7.0    0.010    0.010    0.537    0.547
 get_sizes                       146072 11.0    0.340    0.380    0.503    0.544
 fft_wrap_pw1pw2                   1291 10.1    0.004    0.005    0.510    0.542
 build_3c_integral_block           1775  8.0    0.186    0.441    0.519    0.532
 potential_pw2rs                     69 10.0    0.001    0.001    0.514    0.519
 mp_bcast_dm                          2  9.5    0.493    0.502    0.493    0.502
 mp_irecv_im2                   2376655 13.0    0.224    0.489    0.224    0.489
 cp_cfm_gemm                       3516  8.0    0.471    0.488    0.471    0.488
 dbcsr_copy_into_existing         67723 10.0    0.182    0.275    0.373    0.478
 alloc_block_3c                       1  9.0    0.111    0.114    0.445    0.468
 external_control                    66  5.0    0.002    0.456    0.459    0.459
 mp_bcast_b_src                      66  6.0    0.457    0.459    0.457    0.459
 merge_index                     712585 12.7    0.328    0.457    0.328    0.457
 mp_bcast_i_src                     852  7.0    0.375    0.446    0.375    0.446
 mp_sum_d                         19531  8.8    0.402    0.434    0.402    0.434
 dbt_reserve_blocks_tensor_to_m   87451 11.0    0.254    0.291    0.363    0.422
 -------------------------------------------------------------------------------

 The number of warnings for this run is : 1
 
 -------------------------------------------------------------------------------
  **** **** ******  **  PROGRAM ENDED AT                 2025-07-15 12:25:32.227
 ***** ** ***  *** **   PROGRAM RAN ON                                  n2cn0660
 **    ****   ******    PROGRAM RAN BY                                  metdyn02
 ***** **    ** ** **   PROGRAM PROCESS ID                                253373
  **** **  *******  **  PROGRAM STOPPED IN /scratch/hpc-prf-metdyn/metdyn02_Remi
                                           /05_TMD_new/4_WSe2_/SZVnonaug
