SIRIUS 7.5.2, git hash: https://api.github.com/repos/electronic-structure/SIRIUS/git/ref/tags/v7.5.2
 DBCSR| CPU Multiplication driver                                           XSMM (U)
 DBCSR| Multrec recursion limit                                              512 (U)
 DBCSR| Multiplication stack size                                           1000 (D)
 DBCSR| Maximum elements for images                                    UNLIMITED (U)
 DBCSR| Multiplicative factor virtual images                                   1 (U)
 DBCSR| Use multiplication densification                                       T (D)
 DBCSR| Multiplication size stacks                                             3 (U)
 DBCSR| Use memory pool for CPU allocation                                     F (U)
 DBCSR| Number of 3D layers                                               SINGLE (U)
 DBCSR| Use MPI memory allocation                                              F (U)
 DBCSR| Use RMA algorithm                                                      F (U)
 DBCSR| Use Communication thread                                               T (U)
 DBCSR| Communication thread load                                             60 (D)
 DBCSR| MPI: My process id                                                     0
 DBCSR| MPI: Number of processes                                              96
 DBCSR| OMP: Current number of threads                                         8
 DBCSR| OMP: Max number of threads                                             8
 DBCSR| Split modifier for TAS multiplication algorithm                  1.0E+00 (U)


  **** **** ******  **  PROGRAM STARTED AT               2025-01-10 19:41:41.810
 ***** ** ***  *** **   PROGRAM STARTED ON                n2lcn0111.ab2021.local
 **    ****   ******    PROGRAM STARTED BY                              metdyn02
 ***** **    ** ** **   PROGRAM PROCESS ID                                659682
  **** **  *******  **  PROGRAM STARTED IN /scratch/hpc-prf-metdyn/metdyn02_Remi
                                           /05_TMD_new/2_MoSe2/SZV/1e-3

 CP2K| version string:                 CP2K version 2024.3 (Development Version)
 CP2K| source code revision number:                                  git:971aa1d
 CP2K| cp2kflags: omp libint fftw3 libxc libgrpp elpa parallel scalapack mpi_f08
 CP2K|             cosma deepmd xsmm plumed2 spglib sirius libvori libbqb libvdw
 CP2K|            wxc hdf5
 CP2K| is freely available from                            https://www.cp2k.org/
 CP2K| Program compiled at                          Thu Dec 19 17:50:00 CET 2024
 CP2K| Program compiled on                                              n2login1
 CP2K| Program compiled for                                                local
 CP2K| Data directory path    /opt/software/pc2/EB-SW/software/CP2K/2024.1-foss-
 CP2K| Input file name                                                    GW.inp

 GLOBAL| Force Environment number                                              1
 GLOBAL| Basis set file name            /scratch/hpc-prf-metdyn/metdyn02_Remi/05
 GLOBAL| Potential file name            /pc2/groups/hpc-prf-metdyn/metdyn02_Remi
 GLOBAL| MM Potential file name                                     MM_POTENTIAL
 GLOBAL| Coordinate file name                                      __STD_INPUT__
 GLOBAL| Method name                                                        CP2K
 GLOBAL| Project name                                                      MoSe2
 GLOBAL| Run type                                                         ENERGY
 GLOBAL| FFT library                                                       FFTW3
 GLOBAL| Diagonalization library                                            ELPA
 GLOBAL| DGEMM library                                                      BLAS
 GLOBAL| Minimum number of eigenvectors for ELPA usage                        16
 GLOBAL| Orthonormality check for eigenvectors                          DISABLED
 GLOBAL| Matrix multiplication library                                     COSMA
 GLOBAL| All-to-all communication in single precision                          F
 GLOBAL| FFTs using library dependent lengths                                  F
 GLOBAL| Grid backend                                                       AUTO
 GLOBAL| Global print level                                               MEDIUM
 GLOBAL| MPI I/O enabled                                                       T
 GLOBAL| Total number of message passing processes                            96
 GLOBAL| Number of threads for this process                                    8
 GLOBAL| This output is from process                                           0
 GLOBAL| OpenMP stack size per thread (OMP_STACKSIZE)                    default
 GLOBAL| CPU model name                          AMD EPYC 7763 64-Core Processor
 GLOBAL| CPUID                                                              1002

 MEMORY| system memory details [Kb]
 MEMORY|                        rank 0           min           max       average
 MEMORY| MemTotal           1056622244    1056622244    1056622248    1056622247
 MEMORY| MemFree            1042644444    1040770704    1044890784    1042688642
 MEMORY| Buffers                275616        121860        275616        208406
 MEMORY| Cached                5378548       3998892       7292356       5426214
 MEMORY| Slab                  1483968       1265136       1868152       1632675
 MEMORY| SReclaimable           270680        214608        346340        292690
 MEMORY| MemLikelyFree      1048569288    1048331048    1049281588    1048615952


 *** Fundamental physical constants (SI units) ***

 *** Literature: B. J. Mohr and B. N. Taylor,
 ***             CODATA recommended values of the fundamental physical
 ***             constants: 2006, Web Version 5.1
 ***             http://physics.nist.gov/constants

 Speed of light in vacuum [m/s]                             2.99792458000000E+08
 Magnetic constant or permeability of vacuum [N/A**2]       1.25663706143592E-06
 Electric constant or permittivity of vacuum [F/m]          8.85418781762039E-12
 Planck constant (h) [J*s]                                  6.62606896000000E-34
 Planck constant (h-bar) [J*s]                              1.05457162825177E-34
 Elementary charge [C]                                      1.60217648700000E-19
 Electron mass [kg]                                         9.10938215000000E-31
 Electron g factor [ ]                                     -2.00231930436220E+00
 Proton mass [kg]                                           1.67262163700000E-27
 Fine-structure constant                                    7.29735253760000E-03
 Rydberg constant [1/m]                                     1.09737315685270E+07
 Avogadro constant [1/mol]                                  6.02214179000000E+23
 Boltzmann constant [J/K]                                   1.38065040000000E-23
 Atomic mass unit [kg]                                      1.66053878200000E-27
 Bohr radius [m]                                            5.29177208590000E-11

 *** Conversion factors ***

 [u] -> [a.u.]                                              1.82288848426455E+03
 [Angstrom] -> [Bohr] = [a.u.]                              1.88972613288564E+00
 [a.u.] = [Bohr] -> [Angstrom]                              5.29177208590000E-01
 [a.u.] -> [s]                                              2.41888432650478E-17
 [a.u.] -> [fs]                                             2.41888432650478E-02
 [a.u.] -> [J]                                              4.35974393937059E-18
 [a.u.] -> [N]                                              8.23872205491840E-08
 [a.u.] -> [K]                                              3.15774647902944E+05
 [a.u.] -> [kJ/mol]                                         2.62549961709828E+03
 [a.u.] -> [kcal/mol]                                       6.27509468713739E+02
 [a.u.] -> [Pa]                                             2.94210107994716E+13
 [a.u.] -> [bar]                                            2.94210107994716E+08
 [a.u.] -> [atm]                                            2.90362800883016E+08
 [a.u.] -> [eV]                                             2.72113838565563E+01
 [a.u.] -> [Hz]                                             6.57968392072181E+15
 [a.u.] -> [1/cm] (wave numbers)                            2.19474631370540E+05
 [a.u./Bohr**2] -> [1/cm]                                   5.14048714338585E+03
 

 CELL_TOP| Volume [angstrom^3]:                                       143.175000
 CELL_TOP| Vector a [angstrom     3.320     0.000     0.000   |a| =     3.320000
 CELL_TOP| Vector b [angstrom    -1.660     2.875     0.000   |b| =     3.319823
 CELL_TOP| Vector c [angstrom     0.000     0.000    15.000   |c| =    15.000000
 CELL_TOP| Angle (b,c), alpha [degree]:                                90.000000
 CELL_TOP| Angle (a,c), beta  [degree]:                                90.000000
 CELL_TOP| Angle (a,b), gamma [degree]:                               120.001763
 CELL_TOP| Numerically orthorhombic:                                          NO
 CELL_TOP| Periodicity                                                        XY

 GENERATE|  Preliminary Number of Bonds generated:                             0
 GENERATE|  Achieved consistency in connectivity generation.

 CELL| Volume [angstrom^3]:                                           143.175000
 CELL| Vector a [angstrom]:       3.320     0.000     0.000   |a| =     3.320000
 CELL| Vector b [angstrom]:      -1.660     2.875     0.000   |b| =     3.319823
 CELL| Vector c [angstrom]:       0.000     0.000    15.000   |c| =    15.000000
 CELL| Angle (b,c), alpha [degree]:                                    90.000000
 CELL| Angle (a,c), beta  [degree]:                                    90.000000
 CELL| Angle (a,b), gamma [degree]:                                   120.001763
 CELL| Numerically orthorhombic:                                              NO
 CELL| Periodicity                                                            XY

 CELL_REF| Volume [angstrom^3]:                                       143.175000
 CELL_REF| Vector a [angstrom     3.320     0.000     0.000   |a| =     3.320000
 CELL_REF| Vector b [angstrom    -1.660     2.875     0.000   |b| =     3.319823
 CELL_REF| Vector c [angstrom     0.000     0.000    15.000   |c| =    15.000000
 CELL_REF| Angle (b,c), alpha [degree]:                                90.000000
 CELL_REF| Angle (a,c), beta  [degree]:                                90.000000
 CELL_REF| Angle (a,b), gamma [degree]:                               120.001763
 CELL_REF| Numerically orthorhombic:                                          NO
 CELL_REF| Periodicity                                                        XY

 *******************************************************************************
                                    Kpoints
 *******************************************************************************
 BRILLOUIN| K-point scheme                                        Monkhorst-Pack
 BRILLOUIN| K-Point grid                                            32   32    1
 BRILLOUIN| Accuracy in Symmetry determination                      0.100000E-05
 BRILLOUIN| K-Point point group symmetrization                               OFF
 BRILLOUIN| Wavefunction type                                            COMPLEX
 BRILLOUIN| List of Kpoints [2 Pi/Bohr]                                      512
 BRILLOUIN| Number           Weight            X              Y              Z
 BRILLOUIN|     1           0.00195       -0.48438       -0.48438        0.00000
 BRILLOUIN|     2           0.00195       -0.48438       -0.45312        0.00000
 BRILLOUIN|     3           0.00195       -0.48438       -0.42188        0.00000
 BRILLOUIN|     4           0.00195       -0.48438       -0.39062        0.00000
 BRILLOUIN|     5           0.00195       -0.48438       -0.35938        0.00000
 BRILLOUIN|     6           0.00195       -0.48438       -0.32812        0.00000
 BRILLOUIN|     7           0.00195       -0.48438       -0.29688        0.00000
 BRILLOUIN|     8           0.00195       -0.48438       -0.26562        0.00000
 BRILLOUIN|     9           0.00195       -0.48438       -0.23438        0.00000
 BRILLOUIN|    10           0.00195       -0.48438       -0.20312        0.00000
 BRILLOUIN|    11           0.00195       -0.48438       -0.17188        0.00000
 BRILLOUIN|    12           0.00195       -0.48438       -0.14062        0.00000
 BRILLOUIN|    13           0.00195       -0.48438       -0.10938        0.00000
 BRILLOUIN|    14           0.00195       -0.48438       -0.07812        0.00000
 BRILLOUIN|    15           0.00195       -0.48438       -0.04688        0.00000
 BRILLOUIN|    16           0.00195       -0.48438       -0.01562        0.00000
 BRILLOUIN|    17           0.00195       -0.48438        0.01562        0.00000
 BRILLOUIN|    18           0.00195       -0.48438        0.04688        0.00000
 BRILLOUIN|    19           0.00195       -0.48438        0.07812        0.00000
 BRILLOUIN|    20           0.00195       -0.48438        0.10938        0.00000
 BRILLOUIN|    21           0.00195       -0.48438        0.14062        0.00000
 BRILLOUIN|    22           0.00195       -0.48438        0.17188        0.00000
 BRILLOUIN|    23           0.00195       -0.48438        0.20312        0.00000
 BRILLOUIN|    24           0.00195       -0.48438        0.23438        0.00000
 BRILLOUIN|    25           0.00195       -0.48438        0.26562        0.00000
 BRILLOUIN|    26           0.00195       -0.48438        0.29688        0.00000
 BRILLOUIN|    27           0.00195       -0.48438        0.32812        0.00000
 BRILLOUIN|    28           0.00195       -0.48438        0.35938        0.00000
 BRILLOUIN|    29           0.00195       -0.48438        0.39062        0.00000
 BRILLOUIN|    30           0.00195       -0.48438        0.42188        0.00000
 BRILLOUIN|    31           0.00195       -0.48438        0.45312        0.00000
 BRILLOUIN|    32           0.00195       -0.48438        0.48438        0.00000
 BRILLOUIN|    33           0.00195       -0.45312       -0.48438        0.00000
 BRILLOUIN|    34           0.00195       -0.45312       -0.45312        0.00000
 BRILLOUIN|    35           0.00195       -0.45312       -0.42188        0.00000
 BRILLOUIN|    36           0.00195       -0.45312       -0.39062        0.00000
 BRILLOUIN|    37           0.00195       -0.45312       -0.35938        0.00000
 BRILLOUIN|    38           0.00195       -0.45312       -0.32812        0.00000
 BRILLOUIN|    39           0.00195       -0.45312       -0.29688        0.00000
 BRILLOUIN|    40           0.00195       -0.45312       -0.26562        0.00000
 BRILLOUIN|    41           0.00195       -0.45312       -0.23438        0.00000
 BRILLOUIN|    42           0.00195       -0.45312       -0.20312        0.00000
 BRILLOUIN|    43           0.00195       -0.45312       -0.17188        0.00000
 BRILLOUIN|    44           0.00195       -0.45312       -0.14062        0.00000
 BRILLOUIN|    45           0.00195       -0.45312       -0.10938        0.00000
 BRILLOUIN|    46           0.00195       -0.45312       -0.07812        0.00000
 BRILLOUIN|    47           0.00195       -0.45312       -0.04688        0.00000
 BRILLOUIN|    48           0.00195       -0.45312       -0.01562        0.00000
 BRILLOUIN|    49           0.00195       -0.45312        0.01562        0.00000
 BRILLOUIN|    50           0.00195       -0.45312        0.04688        0.00000
 BRILLOUIN|    51           0.00195       -0.45312        0.07812        0.00000
 BRILLOUIN|    52           0.00195       -0.45312        0.10938        0.00000
 BRILLOUIN|    53           0.00195       -0.45312        0.14062        0.00000
 BRILLOUIN|    54           0.00195       -0.45312        0.17188        0.00000
 BRILLOUIN|    55           0.00195       -0.45312        0.20312        0.00000
 BRILLOUIN|    56           0.00195       -0.45312        0.23438        0.00000
 BRILLOUIN|    57           0.00195       -0.45312        0.26562        0.00000
 BRILLOUIN|    58           0.00195       -0.45312        0.29688        0.00000
 BRILLOUIN|    59           0.00195       -0.45312        0.32812        0.00000
 BRILLOUIN|    60           0.00195       -0.45312        0.35938        0.00000
 BRILLOUIN|    61           0.00195       -0.45312        0.39062        0.00000
 BRILLOUIN|    62           0.00195       -0.45312        0.42188        0.00000
 BRILLOUIN|    63           0.00195       -0.45312        0.45312        0.00000
 BRILLOUIN|    64           0.00195       -0.45312        0.48438        0.00000
 BRILLOUIN|    65           0.00195       -0.42188       -0.48438        0.00000
 BRILLOUIN|    66           0.00195       -0.42188       -0.45312        0.00000
 BRILLOUIN|    67           0.00195       -0.42188       -0.42188        0.00000
 BRILLOUIN|    68           0.00195       -0.42188       -0.39062        0.00000
 BRILLOUIN|    69           0.00195       -0.42188       -0.35938        0.00000
 BRILLOUIN|    70           0.00195       -0.42188       -0.32812        0.00000
 BRILLOUIN|    71           0.00195       -0.42188       -0.29688        0.00000
 BRILLOUIN|    72           0.00195       -0.42188       -0.26562        0.00000
 BRILLOUIN|    73           0.00195       -0.42188       -0.23438        0.00000
 BRILLOUIN|    74           0.00195       -0.42188       -0.20312        0.00000
 BRILLOUIN|    75           0.00195       -0.42188       -0.17188        0.00000
 BRILLOUIN|    76           0.00195       -0.42188       -0.14062        0.00000
 BRILLOUIN|    77           0.00195       -0.42188       -0.10938        0.00000
 BRILLOUIN|    78           0.00195       -0.42188       -0.07812        0.00000
 BRILLOUIN|    79           0.00195       -0.42188       -0.04688        0.00000
 BRILLOUIN|    80           0.00195       -0.42188       -0.01562        0.00000
 BRILLOUIN|    81           0.00195       -0.42188        0.01562        0.00000
 BRILLOUIN|    82           0.00195       -0.42188        0.04688        0.00000
 BRILLOUIN|    83           0.00195       -0.42188        0.07812        0.00000
 BRILLOUIN|    84           0.00195       -0.42188        0.10938        0.00000
 BRILLOUIN|    85           0.00195       -0.42188        0.14062        0.00000
 BRILLOUIN|    86           0.00195       -0.42188        0.17188        0.00000
 BRILLOUIN|    87           0.00195       -0.42188        0.20312        0.00000
 BRILLOUIN|    88           0.00195       -0.42188        0.23438        0.00000
 BRILLOUIN|    89           0.00195       -0.42188        0.26562        0.00000
 BRILLOUIN|    90           0.00195       -0.42188        0.29688        0.00000
 BRILLOUIN|    91           0.00195       -0.42188        0.32812        0.00000
 BRILLOUIN|    92           0.00195       -0.42188        0.35938        0.00000
 BRILLOUIN|    93           0.00195       -0.42188        0.39062        0.00000
 BRILLOUIN|    94           0.00195       -0.42188        0.42188        0.00000
 BRILLOUIN|    95           0.00195       -0.42188        0.45312        0.00000
 BRILLOUIN|    96           0.00195       -0.42188        0.48438        0.00000
 BRILLOUIN|    97           0.00195       -0.39062       -0.48438        0.00000
 BRILLOUIN|    98           0.00195       -0.39062       -0.45312        0.00000
 BRILLOUIN|    99           0.00195       -0.39062       -0.42188        0.00000
 BRILLOUIN|   100           0.00195       -0.39062       -0.39062        0.00000
 BRILLOUIN|   101           0.00195       -0.39062       -0.35938        0.00000
 BRILLOUIN|   102           0.00195       -0.39062       -0.32812        0.00000
 BRILLOUIN|   103           0.00195       -0.39062       -0.29688        0.00000
 BRILLOUIN|   104           0.00195       -0.39062       -0.26562        0.00000
 BRILLOUIN|   105           0.00195       -0.39062       -0.23438        0.00000
 BRILLOUIN|   106           0.00195       -0.39062       -0.20312        0.00000
 BRILLOUIN|   107           0.00195       -0.39062       -0.17188        0.00000
 BRILLOUIN|   108           0.00195       -0.39062       -0.14062        0.00000
 BRILLOUIN|   109           0.00195       -0.39062       -0.10938        0.00000
 BRILLOUIN|   110           0.00195       -0.39062       -0.07812        0.00000
 BRILLOUIN|   111           0.00195       -0.39062       -0.04688        0.00000
 BRILLOUIN|   112           0.00195       -0.39062       -0.01562        0.00000
 BRILLOUIN|   113           0.00195       -0.39062        0.01562        0.00000
 BRILLOUIN|   114           0.00195       -0.39062        0.04688        0.00000
 BRILLOUIN|   115           0.00195       -0.39062        0.07812        0.00000
 BRILLOUIN|   116           0.00195       -0.39062        0.10938        0.00000
 BRILLOUIN|   117           0.00195       -0.39062        0.14062        0.00000
 BRILLOUIN|   118           0.00195       -0.39062        0.17188        0.00000
 BRILLOUIN|   119           0.00195       -0.39062        0.20312        0.00000
 BRILLOUIN|   120           0.00195       -0.39062        0.23438        0.00000
 BRILLOUIN|   121           0.00195       -0.39062        0.26562        0.00000
 BRILLOUIN|   122           0.00195       -0.39062        0.29688        0.00000
 BRILLOUIN|   123           0.00195       -0.39062        0.32812        0.00000
 BRILLOUIN|   124           0.00195       -0.39062        0.35938        0.00000
 BRILLOUIN|   125           0.00195       -0.39062        0.39062        0.00000
 BRILLOUIN|   126           0.00195       -0.39062        0.42188        0.00000
 BRILLOUIN|   127           0.00195       -0.39062        0.45312        0.00000
 BRILLOUIN|   128           0.00195       -0.39062        0.48438        0.00000
 BRILLOUIN|   129           0.00195       -0.35938       -0.48438        0.00000
 BRILLOUIN|   130           0.00195       -0.35938       -0.45312        0.00000
 BRILLOUIN|   131           0.00195       -0.35938       -0.42188        0.00000
 BRILLOUIN|   132           0.00195       -0.35938       -0.39062        0.00000
 BRILLOUIN|   133           0.00195       -0.35938       -0.35938        0.00000
 BRILLOUIN|   134           0.00195       -0.35938       -0.32812        0.00000
 BRILLOUIN|   135           0.00195       -0.35938       -0.29688        0.00000
 BRILLOUIN|   136           0.00195       -0.35938       -0.26562        0.00000
 BRILLOUIN|   137           0.00195       -0.35938       -0.23438        0.00000
 BRILLOUIN|   138           0.00195       -0.35938       -0.20312        0.00000
 BRILLOUIN|   139           0.00195       -0.35938       -0.17188        0.00000
 BRILLOUIN|   140           0.00195       -0.35938       -0.14062        0.00000
 BRILLOUIN|   141           0.00195       -0.35938       -0.10938        0.00000
 BRILLOUIN|   142           0.00195       -0.35938       -0.07812        0.00000
 BRILLOUIN|   143           0.00195       -0.35938       -0.04688        0.00000
 BRILLOUIN|   144           0.00195       -0.35938       -0.01562        0.00000
 BRILLOUIN|   145           0.00195       -0.35938        0.01562        0.00000
 BRILLOUIN|   146           0.00195       -0.35938        0.04688        0.00000
 BRILLOUIN|   147           0.00195       -0.35938        0.07812        0.00000
 BRILLOUIN|   148           0.00195       -0.35938        0.10938        0.00000
 BRILLOUIN|   149           0.00195       -0.35938        0.14062        0.00000
 BRILLOUIN|   150           0.00195       -0.35938        0.17188        0.00000
 BRILLOUIN|   151           0.00195       -0.35938        0.20312        0.00000
 BRILLOUIN|   152           0.00195       -0.35938        0.23438        0.00000
 BRILLOUIN|   153           0.00195       -0.35938        0.26562        0.00000
 BRILLOUIN|   154           0.00195       -0.35938        0.29688        0.00000
 BRILLOUIN|   155           0.00195       -0.35938        0.32812        0.00000
 BRILLOUIN|   156           0.00195       -0.35938        0.35938        0.00000
 BRILLOUIN|   157           0.00195       -0.35938        0.39062        0.00000
 BRILLOUIN|   158           0.00195       -0.35938        0.42188        0.00000
 BRILLOUIN|   159           0.00195       -0.35938        0.45312        0.00000
 BRILLOUIN|   160           0.00195       -0.35938        0.48438        0.00000
 BRILLOUIN|   161           0.00195       -0.32812       -0.48438        0.00000
 BRILLOUIN|   162           0.00195       -0.32812       -0.45312        0.00000
 BRILLOUIN|   163           0.00195       -0.32812       -0.42188        0.00000
 BRILLOUIN|   164           0.00195       -0.32812       -0.39062        0.00000
 BRILLOUIN|   165           0.00195       -0.32812       -0.35938        0.00000
 BRILLOUIN|   166           0.00195       -0.32812       -0.32812        0.00000
 BRILLOUIN|   167           0.00195       -0.32812       -0.29688        0.00000
 BRILLOUIN|   168           0.00195       -0.32812       -0.26562        0.00000
 BRILLOUIN|   169           0.00195       -0.32812       -0.23438        0.00000
 BRILLOUIN|   170           0.00195       -0.32812       -0.20312        0.00000
 BRILLOUIN|   171           0.00195       -0.32812       -0.17188        0.00000
 BRILLOUIN|   172           0.00195       -0.32812       -0.14062        0.00000
 BRILLOUIN|   173           0.00195       -0.32812       -0.10938        0.00000
 BRILLOUIN|   174           0.00195       -0.32812       -0.07812        0.00000
 BRILLOUIN|   175           0.00195       -0.32812       -0.04688        0.00000
 BRILLOUIN|   176           0.00195       -0.32812       -0.01562        0.00000
 BRILLOUIN|   177           0.00195       -0.32812        0.01562        0.00000
 BRILLOUIN|   178           0.00195       -0.32812        0.04688        0.00000
 BRILLOUIN|   179           0.00195       -0.32812        0.07812        0.00000
 BRILLOUIN|   180           0.00195       -0.32812        0.10938        0.00000
 BRILLOUIN|   181           0.00195       -0.32812        0.14062        0.00000
 BRILLOUIN|   182           0.00195       -0.32812        0.17188        0.00000
 BRILLOUIN|   183           0.00195       -0.32812        0.20312        0.00000
 BRILLOUIN|   184           0.00195       -0.32812        0.23438        0.00000
 BRILLOUIN|   185           0.00195       -0.32812        0.26562        0.00000
 BRILLOUIN|   186           0.00195       -0.32812        0.29688        0.00000
 BRILLOUIN|   187           0.00195       -0.32812        0.32812        0.00000
 BRILLOUIN|   188           0.00195       -0.32812        0.35938        0.00000
 BRILLOUIN|   189           0.00195       -0.32812        0.39062        0.00000
 BRILLOUIN|   190           0.00195       -0.32812        0.42188        0.00000
 BRILLOUIN|   191           0.00195       -0.32812        0.45312        0.00000
 BRILLOUIN|   192           0.00195       -0.32812        0.48438        0.00000
 BRILLOUIN|   193           0.00195       -0.29688       -0.48438        0.00000
 BRILLOUIN|   194           0.00195       -0.29688       -0.45312        0.00000
 BRILLOUIN|   195           0.00195       -0.29688       -0.42188        0.00000
 BRILLOUIN|   196           0.00195       -0.29688       -0.39062        0.00000
 BRILLOUIN|   197           0.00195       -0.29688       -0.35938        0.00000
 BRILLOUIN|   198           0.00195       -0.29688       -0.32812        0.00000
 BRILLOUIN|   199           0.00195       -0.29688       -0.29688        0.00000
 BRILLOUIN|   200           0.00195       -0.29688       -0.26562        0.00000
 BRILLOUIN|   201           0.00195       -0.29688       -0.23438        0.00000
 BRILLOUIN|   202           0.00195       -0.29688       -0.20312        0.00000
 BRILLOUIN|   203           0.00195       -0.29688       -0.17188        0.00000
 BRILLOUIN|   204           0.00195       -0.29688       -0.14062        0.00000
 BRILLOUIN|   205           0.00195       -0.29688       -0.10938        0.00000
 BRILLOUIN|   206           0.00195       -0.29688       -0.07812        0.00000
 BRILLOUIN|   207           0.00195       -0.29688       -0.04688        0.00000
 BRILLOUIN|   208           0.00195       -0.29688       -0.01562        0.00000
 BRILLOUIN|   209           0.00195       -0.29688        0.01562        0.00000
 BRILLOUIN|   210           0.00195       -0.29688        0.04688        0.00000
 BRILLOUIN|   211           0.00195       -0.29688        0.07812        0.00000
 BRILLOUIN|   212           0.00195       -0.29688        0.10938        0.00000
 BRILLOUIN|   213           0.00195       -0.29688        0.14062        0.00000
 BRILLOUIN|   214           0.00195       -0.29688        0.17188        0.00000
 BRILLOUIN|   215           0.00195       -0.29688        0.20312        0.00000
 BRILLOUIN|   216           0.00195       -0.29688        0.23438        0.00000
 BRILLOUIN|   217           0.00195       -0.29688        0.26562        0.00000
 BRILLOUIN|   218           0.00195       -0.29688        0.29688        0.00000
 BRILLOUIN|   219           0.00195       -0.29688        0.32812        0.00000
 BRILLOUIN|   220           0.00195       -0.29688        0.35938        0.00000
 BRILLOUIN|   221           0.00195       -0.29688        0.39062        0.00000
 BRILLOUIN|   222           0.00195       -0.29688        0.42188        0.00000
 BRILLOUIN|   223           0.00195       -0.29688        0.45312        0.00000
 BRILLOUIN|   224           0.00195       -0.29688        0.48438        0.00000
 BRILLOUIN|   225           0.00195       -0.26562       -0.48438        0.00000
 BRILLOUIN|   226           0.00195       -0.26562       -0.45312        0.00000
 BRILLOUIN|   227           0.00195       -0.26562       -0.42188        0.00000
 BRILLOUIN|   228           0.00195       -0.26562       -0.39062        0.00000
 BRILLOUIN|   229           0.00195       -0.26562       -0.35938        0.00000
 BRILLOUIN|   230           0.00195       -0.26562       -0.32812        0.00000
 BRILLOUIN|   231           0.00195       -0.26562       -0.29688        0.00000
 BRILLOUIN|   232           0.00195       -0.26562       -0.26562        0.00000
 BRILLOUIN|   233           0.00195       -0.26562       -0.23438        0.00000
 BRILLOUIN|   234           0.00195       -0.26562       -0.20312        0.00000
 BRILLOUIN|   235           0.00195       -0.26562       -0.17188        0.00000
 BRILLOUIN|   236           0.00195       -0.26562       -0.14062        0.00000
 BRILLOUIN|   237           0.00195       -0.26562       -0.10938        0.00000
 BRILLOUIN|   238           0.00195       -0.26562       -0.07812        0.00000
 BRILLOUIN|   239           0.00195       -0.26562       -0.04688        0.00000
 BRILLOUIN|   240           0.00195       -0.26562       -0.01562        0.00000
 BRILLOUIN|   241           0.00195       -0.26562        0.01562        0.00000
 BRILLOUIN|   242           0.00195       -0.26562        0.04688        0.00000
 BRILLOUIN|   243           0.00195       -0.26562        0.07812        0.00000
 BRILLOUIN|   244           0.00195       -0.26562        0.10938        0.00000
 BRILLOUIN|   245           0.00195       -0.26562        0.14062        0.00000
 BRILLOUIN|   246           0.00195       -0.26562        0.17188        0.00000
 BRILLOUIN|   247           0.00195       -0.26562        0.20312        0.00000
 BRILLOUIN|   248           0.00195       -0.26562        0.23438        0.00000
 BRILLOUIN|   249           0.00195       -0.26562        0.26562        0.00000
 BRILLOUIN|   250           0.00195       -0.26562        0.29688        0.00000
 BRILLOUIN|   251           0.00195       -0.26562        0.32812        0.00000
 BRILLOUIN|   252           0.00195       -0.26562        0.35938        0.00000
 BRILLOUIN|   253           0.00195       -0.26562        0.39062        0.00000
 BRILLOUIN|   254           0.00195       -0.26562        0.42188        0.00000
 BRILLOUIN|   255           0.00195       -0.26562        0.45312        0.00000
 BRILLOUIN|   256           0.00195       -0.26562        0.48438        0.00000
 BRILLOUIN|   257           0.00195       -0.23438       -0.48438        0.00000
 BRILLOUIN|   258           0.00195       -0.23438       -0.45312        0.00000
 BRILLOUIN|   259           0.00195       -0.23438       -0.42188        0.00000
 BRILLOUIN|   260           0.00195       -0.23438       -0.39062        0.00000
 BRILLOUIN|   261           0.00195       -0.23438       -0.35938        0.00000
 BRILLOUIN|   262           0.00195       -0.23438       -0.32812        0.00000
 BRILLOUIN|   263           0.00195       -0.23438       -0.29688        0.00000
 BRILLOUIN|   264           0.00195       -0.23438       -0.26562        0.00000
 BRILLOUIN|   265           0.00195       -0.23438       -0.23438        0.00000
 BRILLOUIN|   266           0.00195       -0.23438       -0.20312        0.00000
 BRILLOUIN|   267           0.00195       -0.23438       -0.17188        0.00000
 BRILLOUIN|   268           0.00195       -0.23438       -0.14062        0.00000
 BRILLOUIN|   269           0.00195       -0.23438       -0.10938        0.00000
 BRILLOUIN|   270           0.00195       -0.23438       -0.07812        0.00000
 BRILLOUIN|   271           0.00195       -0.23438       -0.04688        0.00000
 BRILLOUIN|   272           0.00195       -0.23438       -0.01562        0.00000
 BRILLOUIN|   273           0.00195       -0.23438        0.01562        0.00000
 BRILLOUIN|   274           0.00195       -0.23438        0.04688        0.00000
 BRILLOUIN|   275           0.00195       -0.23438        0.07812        0.00000
 BRILLOUIN|   276           0.00195       -0.23438        0.10938        0.00000
 BRILLOUIN|   277           0.00195       -0.23438        0.14062        0.00000
 BRILLOUIN|   278           0.00195       -0.23438        0.17188        0.00000
 BRILLOUIN|   279           0.00195       -0.23438        0.20312        0.00000
 BRILLOUIN|   280           0.00195       -0.23438        0.23438        0.00000
 BRILLOUIN|   281           0.00195       -0.23438        0.26562        0.00000
 BRILLOUIN|   282           0.00195       -0.23438        0.29688        0.00000
 BRILLOUIN|   283           0.00195       -0.23438        0.32812        0.00000
 BRILLOUIN|   284           0.00195       -0.23438        0.35938        0.00000
 BRILLOUIN|   285           0.00195       -0.23438        0.39062        0.00000
 BRILLOUIN|   286           0.00195       -0.23438        0.42188        0.00000
 BRILLOUIN|   287           0.00195       -0.23438        0.45312        0.00000
 BRILLOUIN|   288           0.00195       -0.23438        0.48438        0.00000
 BRILLOUIN|   289           0.00195       -0.20312       -0.48438        0.00000
 BRILLOUIN|   290           0.00195       -0.20312       -0.45312        0.00000
 BRILLOUIN|   291           0.00195       -0.20312       -0.42188        0.00000
 BRILLOUIN|   292           0.00195       -0.20312       -0.39062        0.00000
 BRILLOUIN|   293           0.00195       -0.20312       -0.35938        0.00000
 BRILLOUIN|   294           0.00195       -0.20312       -0.32812        0.00000
 BRILLOUIN|   295           0.00195       -0.20312       -0.29688        0.00000
 BRILLOUIN|   296           0.00195       -0.20312       -0.26562        0.00000
 BRILLOUIN|   297           0.00195       -0.20312       -0.23438        0.00000
 BRILLOUIN|   298           0.00195       -0.20312       -0.20312        0.00000
 BRILLOUIN|   299           0.00195       -0.20312       -0.17188        0.00000
 BRILLOUIN|   300           0.00195       -0.20312       -0.14062        0.00000
 BRILLOUIN|   301           0.00195       -0.20312       -0.10938        0.00000
 BRILLOUIN|   302           0.00195       -0.20312       -0.07812        0.00000
 BRILLOUIN|   303           0.00195       -0.20312       -0.04688        0.00000
 BRILLOUIN|   304           0.00195       -0.20312       -0.01562        0.00000
 BRILLOUIN|   305           0.00195       -0.20312        0.01562        0.00000
 BRILLOUIN|   306           0.00195       -0.20312        0.04688        0.00000
 BRILLOUIN|   307           0.00195       -0.20312        0.07812        0.00000
 BRILLOUIN|   308           0.00195       -0.20312        0.10938        0.00000
 BRILLOUIN|   309           0.00195       -0.20312        0.14062        0.00000
 BRILLOUIN|   310           0.00195       -0.20312        0.17188        0.00000
 BRILLOUIN|   311           0.00195       -0.20312        0.20312        0.00000
 BRILLOUIN|   312           0.00195       -0.20312        0.23438        0.00000
 BRILLOUIN|   313           0.00195       -0.20312        0.26562        0.00000
 BRILLOUIN|   314           0.00195       -0.20312        0.29688        0.00000
 BRILLOUIN|   315           0.00195       -0.20312        0.32812        0.00000
 BRILLOUIN|   316           0.00195       -0.20312        0.35938        0.00000
 BRILLOUIN|   317           0.00195       -0.20312        0.39062        0.00000
 BRILLOUIN|   318           0.00195       -0.20312        0.42188        0.00000
 BRILLOUIN|   319           0.00195       -0.20312        0.45312        0.00000
 BRILLOUIN|   320           0.00195       -0.20312        0.48438        0.00000
 BRILLOUIN|   321           0.00195       -0.17188       -0.48438        0.00000
 BRILLOUIN|   322           0.00195       -0.17188       -0.45312        0.00000
 BRILLOUIN|   323           0.00195       -0.17188       -0.42188        0.00000
 BRILLOUIN|   324           0.00195       -0.17188       -0.39062        0.00000
 BRILLOUIN|   325           0.00195       -0.17188       -0.35938        0.00000
 BRILLOUIN|   326           0.00195       -0.17188       -0.32812        0.00000
 BRILLOUIN|   327           0.00195       -0.17188       -0.29688        0.00000
 BRILLOUIN|   328           0.00195       -0.17188       -0.26562        0.00000
 BRILLOUIN|   329           0.00195       -0.17188       -0.23438        0.00000
 BRILLOUIN|   330           0.00195       -0.17188       -0.20312        0.00000
 BRILLOUIN|   331           0.00195       -0.17188       -0.17188        0.00000
 BRILLOUIN|   332           0.00195       -0.17188       -0.14062        0.00000
 BRILLOUIN|   333           0.00195       -0.17188       -0.10938        0.00000
 BRILLOUIN|   334           0.00195       -0.17188       -0.07812        0.00000
 BRILLOUIN|   335           0.00195       -0.17188       -0.04688        0.00000
 BRILLOUIN|   336           0.00195       -0.17188       -0.01562        0.00000
 BRILLOUIN|   337           0.00195       -0.17188        0.01562        0.00000
 BRILLOUIN|   338           0.00195       -0.17188        0.04688        0.00000
 BRILLOUIN|   339           0.00195       -0.17188        0.07812        0.00000
 BRILLOUIN|   340           0.00195       -0.17188        0.10938        0.00000
 BRILLOUIN|   341           0.00195       -0.17188        0.14062        0.00000
 BRILLOUIN|   342           0.00195       -0.17188        0.17188        0.00000
 BRILLOUIN|   343           0.00195       -0.17188        0.20312        0.00000
 BRILLOUIN|   344           0.00195       -0.17188        0.23438        0.00000
 BRILLOUIN|   345           0.00195       -0.17188        0.26562        0.00000
 BRILLOUIN|   346           0.00195       -0.17188        0.29688        0.00000
 BRILLOUIN|   347           0.00195       -0.17188        0.32812        0.00000
 BRILLOUIN|   348           0.00195       -0.17188        0.35938        0.00000
 BRILLOUIN|   349           0.00195       -0.17188        0.39062        0.00000
 BRILLOUIN|   350           0.00195       -0.17188        0.42188        0.00000
 BRILLOUIN|   351           0.00195       -0.17188        0.45312        0.00000
 BRILLOUIN|   352           0.00195       -0.17188        0.48438        0.00000
 BRILLOUIN|   353           0.00195       -0.14062       -0.48438        0.00000
 BRILLOUIN|   354           0.00195       -0.14062       -0.45312        0.00000
 BRILLOUIN|   355           0.00195       -0.14062       -0.42188        0.00000
 BRILLOUIN|   356           0.00195       -0.14062       -0.39062        0.00000
 BRILLOUIN|   357           0.00195       -0.14062       -0.35938        0.00000
 BRILLOUIN|   358           0.00195       -0.14062       -0.32812        0.00000
 BRILLOUIN|   359           0.00195       -0.14062       -0.29688        0.00000
 BRILLOUIN|   360           0.00195       -0.14062       -0.26562        0.00000
 BRILLOUIN|   361           0.00195       -0.14062       -0.23438        0.00000
 BRILLOUIN|   362           0.00195       -0.14062       -0.20312        0.00000
 BRILLOUIN|   363           0.00195       -0.14062       -0.17188        0.00000
 BRILLOUIN|   364           0.00195       -0.14062       -0.14062        0.00000
 BRILLOUIN|   365           0.00195       -0.14062       -0.10938        0.00000
 BRILLOUIN|   366           0.00195       -0.14062       -0.07812        0.00000
 BRILLOUIN|   367           0.00195       -0.14062       -0.04688        0.00000
 BRILLOUIN|   368           0.00195       -0.14062       -0.01562        0.00000
 BRILLOUIN|   369           0.00195       -0.14062        0.01562        0.00000
 BRILLOUIN|   370           0.00195       -0.14062        0.04688        0.00000
 BRILLOUIN|   371           0.00195       -0.14062        0.07812        0.00000
 BRILLOUIN|   372           0.00195       -0.14062        0.10938        0.00000
 BRILLOUIN|   373           0.00195       -0.14062        0.14062        0.00000
 BRILLOUIN|   374           0.00195       -0.14062        0.17188        0.00000
 BRILLOUIN|   375           0.00195       -0.14062        0.20312        0.00000
 BRILLOUIN|   376           0.00195       -0.14062        0.23438        0.00000
 BRILLOUIN|   377           0.00195       -0.14062        0.26562        0.00000
 BRILLOUIN|   378           0.00195       -0.14062        0.29688        0.00000
 BRILLOUIN|   379           0.00195       -0.14062        0.32812        0.00000
 BRILLOUIN|   380           0.00195       -0.14062        0.35938        0.00000
 BRILLOUIN|   381           0.00195       -0.14062        0.39062        0.00000
 BRILLOUIN|   382           0.00195       -0.14062        0.42188        0.00000
 BRILLOUIN|   383           0.00195       -0.14062        0.45312        0.00000
 BRILLOUIN|   384           0.00195       -0.14062        0.48438        0.00000
 BRILLOUIN|   385           0.00195       -0.10938       -0.48438        0.00000
 BRILLOUIN|   386           0.00195       -0.10938       -0.45312        0.00000
 BRILLOUIN|   387           0.00195       -0.10938       -0.42188        0.00000
 BRILLOUIN|   388           0.00195       -0.10938       -0.39062        0.00000
 BRILLOUIN|   389           0.00195       -0.10938       -0.35938        0.00000
 BRILLOUIN|   390           0.00195       -0.10938       -0.32812        0.00000
 BRILLOUIN|   391           0.00195       -0.10938       -0.29688        0.00000
 BRILLOUIN|   392           0.00195       -0.10938       -0.26562        0.00000
 BRILLOUIN|   393           0.00195       -0.10938       -0.23438        0.00000
 BRILLOUIN|   394           0.00195       -0.10938       -0.20312        0.00000
 BRILLOUIN|   395           0.00195       -0.10938       -0.17188        0.00000
 BRILLOUIN|   396           0.00195       -0.10938       -0.14062        0.00000
 BRILLOUIN|   397           0.00195       -0.10938       -0.10938        0.00000
 BRILLOUIN|   398           0.00195       -0.10938       -0.07812        0.00000
 BRILLOUIN|   399           0.00195       -0.10938       -0.04688        0.00000
 BRILLOUIN|   400           0.00195       -0.10938       -0.01562        0.00000
 BRILLOUIN|   401           0.00195       -0.10938        0.01562        0.00000
 BRILLOUIN|   402           0.00195       -0.10938        0.04688        0.00000
 BRILLOUIN|   403           0.00195       -0.10938        0.07812        0.00000
 BRILLOUIN|   404           0.00195       -0.10938        0.10938        0.00000
 BRILLOUIN|   405           0.00195       -0.10938        0.14062        0.00000
 BRILLOUIN|   406           0.00195       -0.10938        0.17188        0.00000
 BRILLOUIN|   407           0.00195       -0.10938        0.20312        0.00000
 BRILLOUIN|   408           0.00195       -0.10938        0.23438        0.00000
 BRILLOUIN|   409           0.00195       -0.10938        0.26562        0.00000
 BRILLOUIN|   410           0.00195       -0.10938        0.29688        0.00000
 BRILLOUIN|   411           0.00195       -0.10938        0.32812        0.00000
 BRILLOUIN|   412           0.00195       -0.10938        0.35938        0.00000
 BRILLOUIN|   413           0.00195       -0.10938        0.39062        0.00000
 BRILLOUIN|   414           0.00195       -0.10938        0.42188        0.00000
 BRILLOUIN|   415           0.00195       -0.10938        0.45312        0.00000
 BRILLOUIN|   416           0.00195       -0.10938        0.48438        0.00000
 BRILLOUIN|   417           0.00195       -0.07812       -0.48438        0.00000
 BRILLOUIN|   418           0.00195       -0.07812       -0.45312        0.00000
 BRILLOUIN|   419           0.00195       -0.07812       -0.42188        0.00000
 BRILLOUIN|   420           0.00195       -0.07812       -0.39062        0.00000
 BRILLOUIN|   421           0.00195       -0.07812       -0.35938        0.00000
 BRILLOUIN|   422           0.00195       -0.07812       -0.32812        0.00000
 BRILLOUIN|   423           0.00195       -0.07812       -0.29688        0.00000
 BRILLOUIN|   424           0.00195       -0.07812       -0.26562        0.00000
 BRILLOUIN|   425           0.00195       -0.07812       -0.23438        0.00000
 BRILLOUIN|   426           0.00195       -0.07812       -0.20312        0.00000
 BRILLOUIN|   427           0.00195       -0.07812       -0.17188        0.00000
 BRILLOUIN|   428           0.00195       -0.07812       -0.14062        0.00000
 BRILLOUIN|   429           0.00195       -0.07812       -0.10938        0.00000
 BRILLOUIN|   430           0.00195       -0.07812       -0.07812        0.00000
 BRILLOUIN|   431           0.00195       -0.07812       -0.04688        0.00000
 BRILLOUIN|   432           0.00195       -0.07812       -0.01562        0.00000
 BRILLOUIN|   433           0.00195       -0.07812        0.01562        0.00000
 BRILLOUIN|   434           0.00195       -0.07812        0.04688        0.00000
 BRILLOUIN|   435           0.00195       -0.07812        0.07812        0.00000
 BRILLOUIN|   436           0.00195       -0.07812        0.10938        0.00000
 BRILLOUIN|   437           0.00195       -0.07812        0.14062        0.00000
 BRILLOUIN|   438           0.00195       -0.07812        0.17188        0.00000
 BRILLOUIN|   439           0.00195       -0.07812        0.20312        0.00000
 BRILLOUIN|   440           0.00195       -0.07812        0.23438        0.00000
 BRILLOUIN|   441           0.00195       -0.07812        0.26562        0.00000
 BRILLOUIN|   442           0.00195       -0.07812        0.29688        0.00000
 BRILLOUIN|   443           0.00195       -0.07812        0.32812        0.00000
 BRILLOUIN|   444           0.00195       -0.07812        0.35938        0.00000
 BRILLOUIN|   445           0.00195       -0.07812        0.39062        0.00000
 BRILLOUIN|   446           0.00195       -0.07812        0.42188        0.00000
 BRILLOUIN|   447           0.00195       -0.07812        0.45312        0.00000
 BRILLOUIN|   448           0.00195       -0.07812        0.48438        0.00000
 BRILLOUIN|   449           0.00195       -0.04688       -0.48438        0.00000
 BRILLOUIN|   450           0.00195       -0.04688       -0.45312        0.00000
 BRILLOUIN|   451           0.00195       -0.04688       -0.42188        0.00000
 BRILLOUIN|   452           0.00195       -0.04688       -0.39062        0.00000
 BRILLOUIN|   453           0.00195       -0.04688       -0.35938        0.00000
 BRILLOUIN|   454           0.00195       -0.04688       -0.32812        0.00000
 BRILLOUIN|   455           0.00195       -0.04688       -0.29688        0.00000
 BRILLOUIN|   456           0.00195       -0.04688       -0.26562        0.00000
 BRILLOUIN|   457           0.00195       -0.04688       -0.23438        0.00000
 BRILLOUIN|   458           0.00195       -0.04688       -0.20312        0.00000
 BRILLOUIN|   459           0.00195       -0.04688       -0.17188        0.00000
 BRILLOUIN|   460           0.00195       -0.04688       -0.14062        0.00000
 BRILLOUIN|   461           0.00195       -0.04688       -0.10938        0.00000
 BRILLOUIN|   462           0.00195       -0.04688       -0.07812        0.00000
 BRILLOUIN|   463           0.00195       -0.04688       -0.04688        0.00000
 BRILLOUIN|   464           0.00195       -0.04688       -0.01562        0.00000
 BRILLOUIN|   465           0.00195       -0.04688        0.01562        0.00000
 BRILLOUIN|   466           0.00195       -0.04688        0.04688        0.00000
 BRILLOUIN|   467           0.00195       -0.04688        0.07812        0.00000
 BRILLOUIN|   468           0.00195       -0.04688        0.10938        0.00000
 BRILLOUIN|   469           0.00195       -0.04688        0.14062        0.00000
 BRILLOUIN|   470           0.00195       -0.04688        0.17188        0.00000
 BRILLOUIN|   471           0.00195       -0.04688        0.20312        0.00000
 BRILLOUIN|   472           0.00195       -0.04688        0.23438        0.00000
 BRILLOUIN|   473           0.00195       -0.04688        0.26562        0.00000
 BRILLOUIN|   474           0.00195       -0.04688        0.29688        0.00000
 BRILLOUIN|   475           0.00195       -0.04688        0.32812        0.00000
 BRILLOUIN|   476           0.00195       -0.04688        0.35938        0.00000
 BRILLOUIN|   477           0.00195       -0.04688        0.39062        0.00000
 BRILLOUIN|   478           0.00195       -0.04688        0.42188        0.00000
 BRILLOUIN|   479           0.00195       -0.04688        0.45312        0.00000
 BRILLOUIN|   480           0.00195       -0.04688        0.48438        0.00000
 BRILLOUIN|   481           0.00195       -0.01562       -0.48438        0.00000
 BRILLOUIN|   482           0.00195       -0.01562       -0.45312        0.00000
 BRILLOUIN|   483           0.00195       -0.01562       -0.42188        0.00000
 BRILLOUIN|   484           0.00195       -0.01562       -0.39062        0.00000
 BRILLOUIN|   485           0.00195       -0.01562       -0.35938        0.00000
 BRILLOUIN|   486           0.00195       -0.01562       -0.32812        0.00000
 BRILLOUIN|   487           0.00195       -0.01562       -0.29688        0.00000
 BRILLOUIN|   488           0.00195       -0.01562       -0.26562        0.00000
 BRILLOUIN|   489           0.00195       -0.01562       -0.23438        0.00000
 BRILLOUIN|   490           0.00195       -0.01562       -0.20312        0.00000
 BRILLOUIN|   491           0.00195       -0.01562       -0.17188        0.00000
 BRILLOUIN|   492           0.00195       -0.01562       -0.14062        0.00000
 BRILLOUIN|   493           0.00195       -0.01562       -0.10938        0.00000
 BRILLOUIN|   494           0.00195       -0.01562       -0.07812        0.00000
 BRILLOUIN|   495           0.00195       -0.01562       -0.04688        0.00000
 BRILLOUIN|   496           0.00195       -0.01562       -0.01562        0.00000
 BRILLOUIN|   497           0.00195       -0.01562        0.01562        0.00000
 BRILLOUIN|   498           0.00195       -0.01562        0.04688        0.00000
 BRILLOUIN|   499           0.00195       -0.01562        0.07812        0.00000
 BRILLOUIN|   500           0.00195       -0.01562        0.10938        0.00000
 BRILLOUIN|   501           0.00195       -0.01562        0.14062        0.00000
 BRILLOUIN|   502           0.00195       -0.01562        0.17188        0.00000
 BRILLOUIN|   503           0.00195       -0.01562        0.20312        0.00000
 BRILLOUIN|   504           0.00195       -0.01562        0.23438        0.00000
 BRILLOUIN|   505           0.00195       -0.01562        0.26562        0.00000
 BRILLOUIN|   506           0.00195       -0.01562        0.29688        0.00000
 BRILLOUIN|   507           0.00195       -0.01562        0.32812        0.00000
 BRILLOUIN|   508           0.00195       -0.01562        0.35938        0.00000
 BRILLOUIN|   509           0.00195       -0.01562        0.39062        0.00000
 BRILLOUIN|   510           0.00195       -0.01562        0.42188        0.00000
 BRILLOUIN|   511           0.00195       -0.01562        0.45312        0.00000
 BRILLOUIN|   512           0.00195       -0.01562        0.48438        0.00000
 *******************************************************************************

 *******************************************************************************
 *******************************************************************************
 **                                                                           **
 **     #####                         ##              ##                      **
 **    ##   ##            ##          ##              ##                      **
 **   ##     ##                       ##            ######                    **
 **   ##     ##  ##   ##  ##   #####  ##  ##   ####   ##    #####    #####    **
 **   ##     ##  ##   ##  ##  ##      ## ##   ##      ##   ##   ##  ##   ##   **
 **   ##  ## ##  ##   ##  ##  ##      ####     ###    ##   ######   ######    **
 **    ##  ###   ##   ##  ##  ##      ## ##      ##   ##   ##       ##        **
 **     #######   #####   ##   #####  ##  ##  ####    ##    #####   ##        **
 **           ##                                                    ##        **
 **                                                                           **
 **                                                ... make the atoms dance   **
 **                                                                           **
 **            Copyright (C) by CP2K developers group (2000-2024)             **
 **                      J. Chem. Phys. 152, 194103 (2020)                    **
 **                                                                           **
 *******************************************************************************

 DFT| Spin restricted Kohn-Sham (RKS) calculation                            RKS
 DFT| Multiplicity                                                             1
 DFT| Number of spin states                                                    1
 DFT| Charge                                                                   0
 DFT| Self-interaction correction (SIC)                                       NO
 DFT| Cutoffs: density                                              1.000000E-10
 DFT|          gradient                                             1.000000E-10
 DFT|          tau                                                  1.000000E-10
 DFT|          cutoff_smoothing_range                               0.000000E+00
 DFT| XC density smoothing                                                  NONE
 DFT| XC derivatives                                                          PW

 FUNCTIONAL| PBE:
 FUNCTIONAL| J.P.Perdew, K.Burke, M.Ernzerhof, Phys. Rev. Letter, vol. 77, n 18,
 FUNCTIONAL|  pp. 3865-3868, (1996) {spin unpolarized}                          


 QS| Method:                                                                GAPW
 QS| Density plane wave grid type                        NON-SPHERICAL FULLSPACE
 QS| Number of grid levels:                                                    4
 QS| Density cutoff [a.u.]:                                                250.0
 QS| Multi grid cutoff [a.u.]: 1) grid level                               250.0
 QS|                           2) grid level                                83.3
 QS|                           3) grid level                                27.8
 QS|                           4) grid level                                 9.3
 QS| Grid level progression factor:                                          3.0
 QS| Relative density cutoff [a.u.]:                                        50.0
 QS| Interaction thresholds: eps_pgf_orb:                                1.0E-12
 QS|                         eps_filter_matrix:                          0.0E+00
 QS|                         eps_core_charge:                            1.0E-14
 QS|                         eps_rho_gspace:                             1.0E-12
 QS|                         eps_rho_rspace:                             1.0E-12
 QS|                         eps_gvg_rspace:                             1.0E-06
 QS|                         eps_ppl:                                    1.0E-02
 QS|                         eps_ppnl:                                   1.0E-08
 QS| GAPW|      One center basis from orbital basis primitives
 QS| GAPW|                   eps_fit:                                    1.0E-04
 QS| GAPW|                   eps_iso:                                    1.0E-12
 QS| GAPW|                   eps_svd:                                    1.0E-08
 QS| GAPW|                   eps_cpc:                                    1.0E-12
 QS| GAPW|   atom-r-grid: quadrature:                                     GC_LOG
 QS| GAPW|      atom-s-grid:  max l :                                          6
 QS| GAPW|      max_l_rho0 :                                                   2
 QS| GAPW|      At least one kind is NOT PAW, i.e. it has only soft AO 
 QS| GAPW|      The NOT PAW atoms are treated fully GPW


 ATOMIC KIND INFORMATION

  1. Atomic kind: Mo                                    Number of atoms:       1

     Orbital Basis Set                                        aug-SZV-MOLOPT-GTH

       Number of orbital shell sets:                                           1
       Number of orbital shells:                                               8
       Number of primitive Cartesian functions:                                7
       Number of Cartesian basis functions:                                   31
       Number of spherical basis functions:                                   26
       Norm type:                                                              2

       Normalised Cartesian orbitals:

                        Set   Shell   Orbital            Exponent    Coefficient

                          1       1    2s                0.052949       0.001981
                                                         0.083802      -0.010762
                                                         0.189498       0.027372
                                                         0.439257       0.078864
                                                         0.894040       0.689563
                                                         1.999996       0.475974
                                                         2.540273      -1.291314

                          1       2    3s                0.052949      -0.030340
                                                         0.083802      -0.064725
                                                         0.189498      -0.028997
                                                         0.439257       0.016258
                                                         0.894040       0.125661
                                                         1.999996      -0.186721
                                                         2.540273       0.199824

                          1       3    4s                0.052949       0.000293
                                                         0.083802       0.017891
                                                         0.189498       0.174119
                                                         0.439257       0.000338
                                                         0.894040       0.000124
                                                         1.999996       0.000000
                                                         2.540273       0.000000

                          1       4    3px               0.052949       0.000064
                                                         0.083802      -0.000118
                                                         0.189498      -0.006020
                                                         0.439257      -0.180857
                                                         0.894040      -0.605502
                                                         1.999996      -2.548091
                                                         2.540273       2.808966
                          1       4    3py               0.052949       0.000064
                                                         0.083802      -0.000118
                                                         0.189498      -0.006020
                                                         0.439257      -0.180857
                                                         0.894040      -0.605502
                                                         1.999996      -2.548091
                                                         2.540273       2.808966
                          1       4    3pz               0.052949       0.000064
                                                         0.083802      -0.000118
                                                         0.189498      -0.006020
                                                         0.439257      -0.180857
                                                         0.894040      -0.605502
                                                         1.999996      -2.548091
                                                         2.540273       2.808966

                          1       5    4px               0.052949       0.016064
                                                         0.083802       0.029646
                                                         0.189498       0.043571
                                                         0.439257      -0.099073
                                                         0.894040       0.009322
                                                         1.999996       0.000000
                                                         2.540273       0.000000
                          1       5    4py               0.052949       0.016064
                                                         0.083802       0.029646
                                                         0.189498       0.043571
                                                         0.439257      -0.099073
                                                         0.894040       0.009322
                                                         1.999996       0.000000
                                                         2.540273       0.000000
                          1       5    4pz               0.052949       0.016064
                                                         0.083802       0.029646
                                                         0.189498       0.043571
                                                         0.439257      -0.099073
                                                         0.894040       0.009322
                                                         1.999996       0.000000
                                                         2.540273       0.000000

                          1       6    4dx2              0.052949       0.000173
                                                         0.083802       0.001355
                                                         0.189498       0.023725
                                                         0.439257       0.160904
                                                         0.894040       0.370223
                                                         1.999996       2.115795
                                                         2.540273      -1.655651
                          1       6    4dxy              0.052949       0.000300
                                                         0.083802       0.002348
                                                         0.189498       0.041094
                                                         0.439257       0.278694
                                                         0.894040       0.641245
                                                         1.999996       3.664664
                                                         2.540273      -2.867672
                          1       6    4dxz              0.052949       0.000300
                                                         0.083802       0.002348
                                                         0.189498       0.041094
                                                         0.439257       0.278694
                                                         0.894040       0.641245
                                                         1.999996       3.664664
                                                         2.540273      -2.867672
                          1       6    4dy2              0.052949       0.000173
                                                         0.083802       0.001355
                                                         0.189498       0.023725
                                                         0.439257       0.160904
                                                         0.894040       0.370223
                                                         1.999996       2.115795
                                                         2.540273      -1.655651
                          1       6    4dyz              0.052949       0.000300
                                                         0.083802       0.002348
                                                         0.189498       0.041094
                                                         0.439257       0.278694
                                                         0.894040       0.641245
                                                         1.999996       3.664664
                                                         2.540273      -2.867672
                          1       6    4dz2              0.052949       0.000173
                                                         0.083802       0.001355
                                                         0.189498       0.023725
                                                         0.439257       0.160904
                                                         0.894040       0.370223
                                                         1.999996       2.115795
                                                         2.540273      -1.655651

                          1       7    5dx2              0.052949       0.000036
                                                         0.083802       0.003451
                                                         0.189498       0.050397
                                                         0.439257       0.185190
                                                         0.894040      -0.191024
                                                         1.999996       0.000000
                                                         2.540273       0.000000
                          1       7    5dxy              0.052949       0.000062
                                                         0.083802       0.005978
                                                         0.189498       0.087290
                                                         0.439257       0.320758
                                                         0.894040      -0.330863
                                                         1.999996       0.000000
                                                         2.540273       0.000000
                          1       7    5dxz              0.052949       0.000062
                                                         0.083802       0.005978
                                                         0.189498       0.087290
                                                         0.439257       0.320758
                                                         0.894040      -0.330863
                                                         1.999996       0.000000
                                                         2.540273       0.000000
                          1       7    5dy2              0.052949       0.000036
                                                         0.083802       0.003451
                                                         0.189498       0.050397
                                                         0.439257       0.185190
                                                         0.894040      -0.191024
                                                         1.999996       0.000000
                                                         2.540273       0.000000
                          1       7    5dyz              0.052949       0.000062
                                                         0.083802       0.005978
                                                         0.189498       0.087290
                                                         0.439257       0.320758
                                                         0.894040      -0.330863
                                                         1.999996       0.000000
                                                         2.540273       0.000000
                          1       7    5dz2              0.052949       0.000036
                                                         0.083802       0.003451
                                                         0.189498       0.050397
                                                         0.439257       0.185190
                                                         0.894040      -0.191024
                                                         1.999996       0.000000
                                                         2.540273       0.000000

                          1       8    5fx3              0.052949      -0.000274
                                                         0.083802       0.000760
                                                         0.189498       0.005893
                                                         0.439257       0.027686
                                                         0.894040       0.936958
                                                         1.999996       0.000000
                                                         2.540273       0.000000
                          1       8    5fx2y             0.052949      -0.000612
                                                         0.083802       0.001698
                                                         0.189498       0.013177
                                                         0.439257       0.061909
                                                         0.894040       2.095101
                                                         1.999996       0.000000
                                                         2.540273       0.000000
                          1       8    5fx2z             0.052949      -0.000612
                                                         0.083802       0.001698
                                                         0.189498       0.013177
                                                         0.439257       0.061909
                                                         0.894040       2.095101
                                                         1.999996       0.000000
                                                         2.540273       0.000000
                          1       8    5fxy2             0.052949      -0.000612
                                                         0.083802       0.001698
                                                         0.189498       0.013177
                                                         0.439257       0.061909
                                                         0.894040       2.095101
                                                         1.999996       0.000000
                                                         2.540273       0.000000
                          1       8    5fxyz             0.052949      -0.001061
                                                         0.083802       0.002942
                                                         0.189498       0.022824
                                                         0.439257       0.107229
                                                         0.894040       3.628821
                                                         1.999996       0.000000
                                                         2.540273       0.000000
                          1       8    5fxz2             0.052949      -0.000612
                                                         0.083802       0.001698
                                                         0.189498       0.013177
                                                         0.439257       0.061909
                                                         0.894040       2.095101
                                                         1.999996       0.000000
                                                         2.540273       0.000000
                          1       8    5fy3              0.052949      -0.000274
                                                         0.083802       0.000760
                                                         0.189498       0.005893
                                                         0.439257       0.027686
                                                         0.894040       0.936958
                                                         1.999996       0.000000
                                                         2.540273       0.000000
                          1       8    5fy2z             0.052949      -0.000612
                                                         0.083802       0.001698
                                                         0.189498       0.013177
                                                         0.439257       0.061909
                                                         0.894040       2.095101
                                                         1.999996       0.000000
                                                         2.540273       0.000000
                          1       8    5fyz2             0.052949      -0.000612
                                                         0.083802       0.001698
                                                         0.189498       0.013177
                                                         0.439257       0.061909
                                                         0.894040       2.095101
                                                         1.999996       0.000000
                                                         2.540273       0.000000
                          1       8    5fz3              0.052949      -0.000274
                                                         0.083802       0.000760
                                                         0.189498       0.005893
                                                         0.439257       0.027686
                                                         0.894040       0.936958
                                                         1.999996       0.000000
                                                         2.540273       0.000000

     RI Auxiliary Basis Set             RI_aug-SZV-MOLOPT-GTH_N_RI_071_s_p_d_f_g

       Number of orbital shell sets:                                          17
       Number of orbital shells:                                              17
       Number of primitive Cartesian functions:                               17
       Number of Cartesian basis functions:                                  101
       Number of spherical basis functions:                                   71
       Norm type:                                                              2

       Normalised Cartesian orbitals:

                        Set   Shell   Orbital            Exponent    Coefficient

                          1       1    1s                0.131512       0.155645

                          2       1    7px               0.160998       0.145367
                          2       1    7py               0.160998       0.145367
                          2       1    7pz               0.160998       0.145367

                          3       1    2s                0.264634       0.262963

                          4       1   15gx4              0.279187       0.033315
                          4       1   15gx3y             0.279187       0.088144
                          4       1   15gx3z             0.279187       0.088144
                          4       1   15gx2y2            0.279187       0.113794
                          4       1   15gx2yz            0.279187       0.197097
                          4       1   15gx2z2            0.279187       0.113794
                          4       1   15gxy3             0.279187       0.088144
                          4       1   15gxy2z            0.279187       0.197097
                          4       1   15gxyz2            0.279187       0.197097
                          4       1   15gxz3             0.279187       0.088144
                          4       1   15gy4              0.279187       0.033315
                          4       1   15gy3z             0.279187       0.088144
                          4       1   15gy2z2            0.279187       0.113794
                          4       1   15gyz3             0.279187       0.088144
                          4       1   15gz4              0.279187       0.033315

                          5       1    8px               0.394518       0.445680
                          5       1    8py               0.394518       0.445680
                          5       1    8pz               0.394518       0.445680

                          6       1   11dx2              0.395905       0.325233
                          6       1   11dxy              0.395905       0.563320
                          6       1   11dxz              0.395905       0.563320
                          6       1   11dy2              0.395905       0.325233
                          6       1   11dyz              0.395905       0.563320
                          6       1   11dz2              0.395905       0.325233

                          7       1   13fx3              0.522089       0.341099
                          7       1   13fx2y             0.522089       0.762720
                          7       1   13fx2z             0.522089       0.762720
                          7       1   13fxy2             0.522089       0.762720
                          7       1   13fxyz             0.522089       1.321070
                          7       1   13fxz2             0.522089       0.762720
[...]

 J. VandeVondele, J. Hutter.
 J. Chem. Phys. 127, 114105 (2007).
 Gaussian basis sets for accurate calculations on molecular systems in gas and 
 condensed phases.
 https://doi.org/10.1063/1.2770708

 M. Krack.
 Theor. Chem. Acc. 114, 145-152 (2005).
 Pseudopotentials for H to Kr optimized for gradient-corrected 
 exchange-correlation functionals.
 https://doi.org/10.1007/s00214-005-0655-y

 M. Frigo, S. G. Johnson.
 Proc. IEEE 93, 216-231 (2005).
 The design and implementation of FFTW3.
 https://doi.org/10.1109/JPROC.2004.840301

 M. Krack, M. Parrinello.
 Phys. Chem. Chem. Phys. 2, 2105-2112 (2000).
 All-electron ab-initio molecular dynamics.
 https://doi.org/10.1039/b001167n

 G. Lippert, J. Hutter, M. Parrinello.
 Theor. Chem. Acc. 103, 124-140 (1999).
 The Gaussian and augmented-plane-wave density functional method for ab initio 
 molecular dynamics simulations.
 https://doi.org/10.1007/s002140050523

 C. Hartwigsen, S. Goedecker, J. Hutter.
 Phys. Rev. B 58, 3641-3662 (1998).
 Relativistic separable dual-space Gaussian pseudopotentials from H to Rn.
 https://doi.org/10.1103/PhysRevB.58.3641

 S. Goedecker, M. Teter, J. Hutter.
 Phys. Rev. B 54, 1703-1710 (1996).
 Separable dual-space Gaussian pseudopotentials.
 https://doi.org/10.1103/PhysRevB.54.1703

 J. P. Perdew, K. Burke, M. Ernzerhof.
 Phys. Rev. Lett. 77, 3865-3868 (1996).
 Generalized gradient approximation made simple.
 https://doi.org/10.1103/PhysRevLett.77.3865


 -------------------------------------------------------------------------------
 -                                                                             -
 -                                T I M I N G                                  -
 -                                                                             -
 -------------------------------------------------------------------------------
 SUBROUTINE                       CALLS  ASD         SELF TIME        TOTAL TIME
                                MAXIMUM       AVERAGE  MAXIMUM  AVERAGE  MAXIMUM
 CP2K                                 1  1.0     0.01     0.02 17934.33 17934.46
 qs_energies                          1  2.0     0.00     0.00 17933.63 17933.76
 qs_energies_properties               1  3.0     0.00     0.00 17544.42 17544.54
 post_scf_bandstructure               1  4.0     0.00     0.00 17544.42 17544.54
 gw                                   1  5.0     0.00     0.00 17469.01 17469.14
 gw_calc_small_cell_full_kp           1  6.0     0.00     0.01 17293.10 17293.22
 dbt_total                      *******  9.8    44.25    47.35  9111.21 11338.93
 dbt_contract                   ******* 10.6    69.12    73.25  7544.38  9793.16
 dbt_tas_multiply               8959306 13.0     7.53     8.05  7050.17  9290.99
 dbt_tas_total                  8959306 14.0   356.19   380.30  7045.51  9286.57
 compute_Sigma_c                      1  7.0     0.00     0.00  6899.64  6899.68
 dbt_tas_dbm                    8959306 15.0     6.83     7.38  2805.05  5107.36
 dbm_multiply                   8959306 17.0  2789.95  5093.25  2789.95  5093.25
 compute_chi                          1  7.0     0.08     0.10  5089.49  5089.53
 compute_W_real_space                 1  7.0     6.44     6.92  5005.41  5005.45
 contract_to_Sigma                  610  8.0    50.90    55.22  3434.63  4472.82
 compute_Minv_and_Vsqrt               1  8.0     0.08     0.09  4442.71  4442.81
 build_2c_coulomb_matrix_kp_sma       2  9.0     3.24     3.61  4433.70  4433.73
 build_2c_coulomb_matrix_kp_sma  655360 10.0  3734.18  3760.82  3734.18  3760.82
 mp_sync                        ******* 12.0  2572.95  2898.54  2572.95  2898.54
 contract_to_Sigma_3c_x_G       6716588  9.0     7.12     7.67  2023.90  2583.89
 G_times_3c                       32820  8.0    11.87    12.26  1912.88  2572.03
 contract_M_occ_vir_to_chi          300  8.0    93.76   105.70  2111.73  2410.07
 contract_W                         310  8.0     9.93    10.22  1960.08  2312.26
 dbt_tas_estimate_result_nze    4479653 13.5   657.52   693.31  2169.41  2307.26
 dbt_copy                       ******* 11.1    48.58    52.72  1709.61  2096.66
 dbt_tas_mm_2                   2934198 16.1     2.94     3.25  1193.83  1977.14
 dbt_tas_mm_3T                  3712520 16.2     2.04     2.30  1035.93  1922.66
 contract_to_Sigma_contract       33367  9.0    14.05    15.16  1341.95  1820.78
 dbt_reshape                    ******* 12.0   959.61  1135.34  1214.00  1509.89
 dbt_tas_mm_1N                  2391532 15.5     1.22     1.32   567.13  1199.76
 get_t_3c_int                   *******  9.6    26.25    28.18   819.96  1048.43
 reshape_mm_small               8959306 15.0   519.25   548.29   986.83  1046.45
 dbt_tas_create_split           ******* 16.0    14.13    15.14   534.04   567.08
 dbt_tas_create_split_rows_or_c ******* 17.0    54.12    56.91   519.91   551.94
 dbt_tas_reshape                ******* 15.5    42.74    45.21   491.43   526.74
 reshape_mm_compatible          8959306 15.0    72.46    76.37   479.84   506.37
 convert_to_new_pgrid           ******* 15.0    92.83   100.39   416.52   472.90
 mp_sum_dm                       655431 10.0   392.29   453.37   392.29   453.37
 dbcsr_complete_redistribute     502840  9.6     8.07    13.35   390.34   452.60
 copy_dbcsr_to_fm                282841  8.0     1.47     1.52   399.24   400.94
 dbt_tas_distribution_new       ******* 15.8   196.30   206.89   372.74   393.39
 scf_env_do_scf                       1  3.0     0.00     0.00   388.89   388.89
 scf_env_do_scf_inner_loop           72  4.0     0.01     0.01   388.88   388.89
 dbm_copy                       ******* 16.0   323.69   379.15   323.69   379.15
 qs_scf_new_mos_kp                   72  5.0     0.00     0.00   369.78   369.81
 do_general_diag_kp                  72  6.0     0.34     0.37   369.78   369.80
 change_split                   ******* 15.5    23.50    24.80   334.97   357.25
 dbt_remap                       582744 11.0    53.40    56.46   300.47   354.14
 dbt_tas_reserve_blocks_index   ******* 15.7    38.91    40.76   233.81   353.03
 dbm_reserve_blocks             ******* 16.6   212.24   331.37   212.24   331.37
 dbt_tas_replicate              8959306 15.0   137.34   147.65   293.87   315.01
 mp_cart_create                 ******* 16.7   264.34   281.30   287.27   305.30
 dbcsr_desymmetrize_deep         444361  8.3     3.35     4.29   287.98   291.43
 fm_to_local_tensor              146072  9.0     1.15     1.30   224.10   269.93
 dbt_tas_copy                   6754136 12.6   141.35   176.08   192.01   269.56
 G_occ_vir                          121  8.0     0.27     0.31   259.04   259.71
 dbt_copy_nocomm                2131590 11.0   166.00   207.23   201.47   249.53
 dbt_tas_reshape_buffer_fill    ******* 16.5   222.39   240.85   222.39   240.85
 dbm_filter                     ******* 14.9   226.42   239.06   226.42   239.06
 dbt_reserve_blocks_index_array ******* 13.0     8.29     9.40   139.94   230.72
 copy_fm_to_dbcsr                219999  9.3     0.47     0.50   166.44   229.40
 dbt_reserve_blocks_index       ******* 14.0    11.28    12.81   135.84   225.46
 mp_alltoall_i22                 947201 10.0   158.36   221.35   158.36   221.35
 mp_alltoall_d11v               2841603 10.5   203.36   205.39   203.36   205.39
 compute_Sigma_x                      1  7.0     0.00     0.00   203.86   203.89
 mp_alltoall_i11v               1952881 10.3   196.01   196.07   196.01   196.07
 add_V_L                         327680 10.0     8.03   193.30     8.03   193.30
 add_rs_to_ikp                  *******  9.8   180.27   192.75   180.27   192.75
 dbt_communicate_buffer         ******* 13.0   138.08   188.90   138.08   188.90
 trafo_rs_to_ikp                  14346  8.1     5.45     6.07   171.30   183.49
 mp_comm_dup                    ******* 18.6   155.95   167.77   166.59   178.80
 create_and_init_bs_env_for_gw        1  6.0     0.00     0.00   175.92   175.93
 local_dbt_to_global_fm              91  8.0     0.14     0.15   169.20   169.21
 dbt_tas_reshape_buffer_obtain  ******* 16.5   112.04   126.15   154.71   166.88
 dbt_tas_create_new             ******* 15.3   151.05   164.73   151.05   164.73
 add_ikp_to_rs                  *******  9.9   143.12   151.12   143.12   151.12
 compute_3c_integrals                 1  7.0     0.04     0.04   151.02   151.02
 build_3c_integrals                   1  8.0   144.02   144.93   149.02   149.90
 add_ikp_to_all_rs                13151  8.0     4.64     5.28   128.53   136.72
 dbt_tas_reserve_blocks_templat ******* 14.1    22.27    24.91    90.53   133.60
 fm_to_local_array                  934  8.1    26.97    29.60   131.45   132.19
 parallel_gemm_cfm               280952  8.9     0.16     0.18   111.46   127.38
 parallel_gemm_cfm_cosma         280952  9.9   111.30   127.23   111.30   127.23
 mp_comm_split_direct           ******* 18.0   110.71   118.11   117.92   125.51
 dbt_permute_index              ******* 12.2   100.11   109.55   114.86   125.16
 mp_comm_free                   ******* 15.7   108.15   112.89   108.15   112.89
 mp_sum_dm3                        1067  9.0   101.22   107.58   101.22   107.58
 global_matrix_to_local_matrix   146072 10.0     1.03     2.20    88.39   104.25
 hybrid_alltoall_any             444361  9.3     1.04     1.12    94.86    95.80
 compute_QP_energies                  1  7.0     0.04     0.04    94.69    94.72
 trafo_to_k_and_nn                71492  8.0     0.25     0.27    94.57    94.60
 mp_waitall_1                   1512544 11.0    70.24    87.78    70.24    87.78
 dbm_add                        8959306 15.0    76.76    85.65    76.76    85.65
 dbt_align_index                ******* 11.5    13.08    13.76    79.55    84.63
 add_R                          *******  9.3    53.16    56.21    75.56    82.64
 send_data                       146072 11.0     0.08     0.10    62.82    79.63
 communicate_buffer              146072 12.0     1.00     9.44    62.73    79.55
 power                            27242  8.0    70.98    72.96    70.98    72.96
 mult_W_with_Minv                    30  8.0     0.42     0.47    72.69    72.78
 fm_MWM_R_t_to_local_tensor_W_R      30  8.0     0.02     0.02    68.31    68.34
 kpoint_density_transform            72  7.0     0.11     0.11    67.56    67.62
 dbt_tas_mp_comm                5020623 13.2     7.24     7.84    62.79    66.81
 get_V_tr_R                          34  9.0     0.07     0.08    64.47    64.89
 reshape_mm_template            1165488 15.5    36.99    39.33    59.44    62.83
 dbt_tas_merge                  2934198 15.1    40.58    43.32    55.83    59.79
 mp_sum_dv                        78745  8.9     7.61    58.10     7.61    58.10
 dbt_reserve_blocks_template    2131590 12.0     3.16     3.96    35.46    57.73
 fm_add_ikp_to_rs                123904  9.0    36.25    37.96    55.50    57.46
 mp_cart_sub                     565761 10.0    56.86    56.93    56.86    56.93
 dbt_tas_communicate_buffer     ******* 17.3    38.85    51.16    38.85    51.16
 dbt_tas_reshape_communicate_bu ******* 16.5     5.64     5.97    37.50    48.75
 dbt_distribution_new_expert    1457642 12.3     8.02     8.51    46.18    48.71
 mp_cart_get                    ******* -9.0    44.49    47.80    44.49    47.80
 mp_comm_size                   ******* -3.6    38.14    42.59    38.14    42.59
 is_cell_in_index_to_cell       ******* -8.2    37.66    41.85    37.66    41.85
 rskp_transform                   80760  7.1     0.70    40.86     0.70    40.86
 get_data                        146072 11.0     2.61    39.93     2.81    40.19
 cp_cfm_heevd                      5840  7.6    39.24    39.32    39.24    39.32
 dbt_destroy                    ******* 11.3    34.91    36.29    37.71    39.13
 fm_trafo_rs_to_ikp               71492  9.0    21.10    21.82    35.53    39.13
 dos_pdos_ldos                        1  5.0     0.00     0.00    37.64    37.67
 local_dbt_to_global_mat          87451  9.0     0.31     0.32    21.53    36.67
 SOC_ev                            2344  6.0     0.02     0.03    33.96    34.00
 rsmat_to_kp                       7032  7.2     0.05     0.05    30.00    30.49
 mp_comm_rank                   ******* -3.6    28.53    30.35    28.53    30.35
 dbt_create_new                  728821 11.8     5.48     6.72    26.19    27.89
 local_matrix_to_global_matrix    87451 10.0     0.16     0.17     9.41    24.75
 dbt_create_3c_R1_R2                 62  8.0     2.74     2.91    23.29    23.74
 dbt_tas_reshape_get_coord      ******* 16.5    22.13    23.49    22.13    23.49
 dbt_create_template            3319118  9.0    22.69    23.29    22.69    23.29
 mp_alltoall_i                  ******* 15.1    21.23    23.14    21.23    23.14
 create_and_init_bs_env               1  5.0     0.00     0.00    22.56    22.56
 compute_cfm_mo_coeff_kp_and_ei       1  6.0     0.00     0.00    22.56    22.56
 dbcsr_finalize                 1927423 11.0     3.75     4.52    19.00    21.90
 cp_fm_start_copy_general        221184  7.3     0.99     1.75    19.87    20.11
 transform_dmat                   36864  8.0     0.33    19.98     0.33    19.98
 destroy_t_2d                        62  8.0     3.58     4.19    17.94    18.56
 dbm_scale                      ******* 13.3    15.99    17.13    15.99    17.13
 dbt_create_matrix               146072 10.0     0.84     0.88    15.50    15.92
 mp_sum_i                       8023444 16.0    15.09    15.50    15.09    15.50
 soc                                  1  5.0     0.00     0.00    15.20    15.20
 H_KS_spinor_kp                       1  6.0     0.01     0.01    15.18    15.19
 mp_allgather_i                  442368  8.3    13.92    14.87    13.92    14.87
 mp_sum_l                       ******* 15.2    12.81    13.83    12.81    13.83
 send_sizes_1                    146072 11.0     0.08     0.09    12.90    13.22
 dbt_pgrid_create_expert        1457645 13.3     1.85     2.19    12.00    12.81
 cp_cfm_geeig_canon                1172  7.0     0.00     0.01    12.27    12.29
 dbcsr_filter_anytype            661115 11.0     1.47     1.52     8.75    11.41
 dbcsr_merge_all                 728015 11.7     6.56     7.63     9.50    10.47
 qs_ks_build_kohn_sham_matrix        75  7.0     0.02     0.02     9.90     9.93
 set_blocks                       87451 11.0     0.72     5.57     2.99     9.90
 qs_ks_update_qs_env                 72  5.0     0.00     0.00     9.82     9.86
 dbt_tas_reshape_alltoall       ******* 16.5     4.84     5.22     9.18     9.76
 dbt_nd_mp_comm                  728816 11.8     1.31     1.63     8.88     9.58
 rebuild_ks_matrix                   72  6.0     0.00     0.00     9.51     9.55
 dbt_tas_replicate_communicate_ 6104052 15.9     3.33     3.63     8.25     9.46
 transfer_pw2rs                     376 10.6     0.00     0.00     9.00     9.16
 sum_up_and_integrate                75  8.0     0.00     0.00     0.51     9.10
 integrate_v_rspace                  75  9.0     0.00     0.02     0.51     9.10
 transfer_pw2rs_250                 151 11.0     0.08     0.08     8.88     9.04
 integrate_vhg0_rspace               75  8.0     0.00     0.00     8.74     8.90
 mp_max_i                       ******* 11.6     7.65     8.89     7.65     8.89
 grid_integrate_task_list            75 10.0     0.13     8.72     0.13     8.72
 comm_data                        87451 11.0     0.18     1.08     0.92     7.77
 heuristic_RI_regularization          1  7.0     0.00     0.00     7.69     7.69
 qs_rho_update_rho_low               73  5.0     0.00     0.00     7.63     7.64
 calculate_rho_elec                  73  6.0     0.00     0.01     7.63     7.63
 transfer_rs2pw                     369  8.4     0.00     0.00     7.36     7.50
 mp_bcast_i                     ******* 18.0     6.55     7.42     6.55     7.42
 transfer_rs2pw_250                 150 10.0     0.10     0.12     7.26     7.41
 mp_sendrecv_dv                   35055 10.4     7.24     7.37     7.24     7.37
 density_rs2pw                       73  7.0     0.00     0.00     7.24     7.37
 setup_cells_3c                       1  7.0     0.27     0.27     7.37     7.37
 get_Minv_Vtr_Minv_R                  1  8.0     0.01     0.02     7.25     7.27
 grid_collocate_task_list            73  7.0     0.38     7.23     0.38     7.23
 mp_cart_rank                   ******* 15.9     6.42     7.20     6.42     7.20
 build_3c_integral_block          21276  8.0     2.54     2.73     6.88     7.10
 trafo_V_xc_R_to_kp                   1  7.0     0.00     0.01     6.68     6.70
 mp_dims_create                 ******* 14.4     5.53     6.25     5.53     6.25
 mp_waitall_2                    174902 12.0     0.63     6.07     0.63     6.07
 build_2c_integrals                  34 10.0     0.08     2.70     0.18     5.48
 dbt_tas_replicate_alltoall     6104052 15.9     2.88     3.23     4.92     5.47
 send_sizes_2                    146072 11.0     0.08     0.09     4.93     5.30
 dbcsr_work_create              1172376 10.3     3.23     3.53     4.67     5.16
 mp_isend_dv                    ******* 11.6     0.38     5.04     0.38     5.04
 dbt_distribution_destroy       1457642 12.3     3.47     3.77     4.28     4.61
 dbcsr_create_new               1653665  9.9     3.39     3.71     4.24     4.56
 dbcsr_iterator_start           4171934 10.8     3.56     3.72     4.27     4.47
 abc_contract_xsmm                40987  9.0     4.13     4.26     4.13     4.26
 dbt_tas_merge_communicate_buff 2934198 16.1     1.72     1.92     3.80     4.24
 dbt_buffer_get_index           ******* 16.8     3.66     4.15     3.66     4.15
 mp_bcast_iv                     884818  8.3     3.45     4.11     3.45     4.11
 dbt_tas_merge_alltoall         2934198 16.1     1.86     2.13     3.33     3.78
 dbcsr_work_destroy_all         1172376 11.2     2.32     2.69     3.25     3.69
 alloc_block_3c                       1  9.0     0.18     0.18     3.58     3.68
 copy_fm_to_dbcsr_bc             219999 10.3     1.05     1.08     3.47     3.62
 comm_size                        87451 11.0     0.06     0.07     3.18     3.46
 mp_isend_im2                   ******* 12.9     0.16     3.40     0.16     3.40
 compute_proj_mo_on_kind           1172  6.0     0.02     0.02     3.03     3.09
 dbcsr_data_release             ******* 11.7     2.73     2.98     2.73     2.98
 fill_buffer                      87451 11.0     1.16     2.74     1.28     2.87
 dbcsr_data_new                 ******* 11.2     2.61     2.85     2.61     2.85
 dbt_copy_matrix_to_tensor       146072 10.0     0.99     1.09     2.73     2.81
 dbcsr_iterator_stop            4171934 10.8     2.14     2.28     2.63     2.79
 reserve_blocks                  146072 11.0     0.34     0.37     2.47     2.65
 dbcsr_destroy                  1536364  9.6     1.24     1.32     2.38     2.54
 dbcsr_reserve_blocks            590929 12.2     1.21     1.91     1.47     2.26
 setup_parallelization_Delta_R        1  7.0     0.00     0.00     2.18     2.18
 compute_n_tensor_ops_Delta_R         1  8.0     0.61     0.95     2.18     2.18
 dbcsr_set                      1570965 10.4     0.72     0.75     1.60     2.16
 ab_contract                    3769806 11.0     0.04     2.15     0.04     2.15
 tree_to_linear_d                557515 12.6     1.89     2.11     1.89     2.11
 -------------------------------------------------------------------------------

 The number of warnings for this run is : 1
 
 -------------------------------------------------------------------------------
  **** **** ******  **  PROGRAM ENDED AT                 2025-01-11 00:40:38.238
 ***** ** ***  *** **   PROGRAM RAN ON                    n2lcn0111.ab2021.local
 **    ****   ******    PROGRAM RAN BY                                  metdyn02
 ***** **    ** ** **   PROGRAM PROCESS ID                                659682
  **** **  *******  **  PROGRAM STOPPED IN /scratch/hpc-prf-metdyn/metdyn02_Remi
                                           /05_TMD_new/2_MoSe2/SZV/1e-3
