SIRIUS 7.5.2, git hash: https://api.github.com/repos/electronic-structure/SIRIUS/git/ref/tags/v7.5.2
 DBCSR| CPU Multiplication driver                                           XSMM (U)
 DBCSR| Multrec recursion limit                                              512 (U)
 DBCSR| Multiplication stack size                                           1000 (D)
 DBCSR| Maximum elements for images                                    UNLIMITED (U)
 DBCSR| Multiplicative factor virtual images                                   1 (U)
 DBCSR| Use multiplication densification                                       T (D)
 DBCSR| Multiplication size stacks                                             3 (U)
 DBCSR| Use memory pool for CPU allocation                                     F (U)
 DBCSR| Number of 3D layers                                               SINGLE (U)
 DBCSR| Use MPI memory allocation                                              F (U)
 DBCSR| Use RMA algorithm                                                      F (U)
 DBCSR| Use Communication thread                                               T (U)
 DBCSR| Communication thread load                                             60 (D)
 DBCSR| MPI: My process id                                                     0
 DBCSR| MPI: Number of processes                                               1
 DBCSR| OMP: Current number of threads                                         8
 DBCSR| OMP: Max number of threads                                             8
 DBCSR| Split modifier for TAS multiplication algorithm                  1.0E+00 (U)


  **** **** ******  **  PROGRAM STARTED AT               2025-03-07 23:21:12.448
 ***** ** ***  *** **   PROGRAM STARTED ON                              n2cn0558
 **    ****   ******    PROGRAM STARTED BY                              metdyn02
 ***** **    ** ** **   PROGRAM PROCESS ID                                103832
  **** **  *******  **  PROGRAM STARTED IN /scratch/hpc-prf-metdyn/metdyn02_Remi
                                           /05_TMD_new/SNG/1_MoS2_SCAL_test/8c8o
                                           mp

 CP2K| version string:                 CP2K version 2025.1 (Development Version)
 CP2K| source code revision number:                                  git:d2e611a
 CP2K| cp2kflags: omp libint fftw3 libxc libgrpp elpa parallel scalapack mpi_f08
 CP2K|             cosma xsmm plumed2 spglib sirius libvori libbqb libvdwxc hdf5
 CP2K| is freely available from                            https://www.cp2k.org/
 CP2K| Program compiled at                          Thu Mar  6 13:05:54 CET 2025
 CP2K| Program compiled on                                              n2login1
 CP2K| Program compiled for                                                local
 CP2K| Data directory path    /opt/software/pc2/EB-SW/software/CP2K/2024.1-foss-
 CP2K| Input file name                                                    GW.inp

 GLOBAL| Force Environment number                                              1
 GLOBAL| Basis set file name            /scratch/hpc-prf-metdyn/metdyn02_Remi/05
 GLOBAL| Potential file name            /pc2/groups/hpc-prf-metdyn/metdyn02_Remi
 GLOBAL| MM Potential file name                                     MM_POTENTIAL
 GLOBAL| Coordinate file name                                      __STD_INPUT__
 GLOBAL| Method name                                                        CP2K
 GLOBAL| Project name                                                       MoS2
 GLOBAL| Run type                                                         ENERGY
 GLOBAL| FFT library                                                       FFTW3
 GLOBAL| Diagonalization library                                            ELPA
 GLOBAL| DGEMM library                                                      BLAS
 GLOBAL| Minimum number of eigenvectors for ELPA usage                        16
 GLOBAL| Orthonormality check for eigenvectors                          DISABLED
 GLOBAL| Matrix multiplication library                                     COSMA
 GLOBAL| All-to-all communication in single precision                          F
 GLOBAL| FFTs using library dependent lengths                                  F
 GLOBAL| Grid backend                                                       AUTO
 GLOBAL| Global print level                                               MEDIUM
 GLOBAL| MPI I/O enabled                                                       T
 GLOBAL| Total number of message passing processes                             1
 GLOBAL| Number of threads for this process                                    8
 GLOBAL| This output is from process                                           0
 GLOBAL| OpenMP stack size per thread (OMP_STACKSIZE)                    default
 GLOBAL| CPU model name                          AMD EPYC 7763 64-Core Processor
 GLOBAL| CPUID                                                              1002

 MEMORY| system memory details [Kb]
 MEMORY|                        rank 0           min           max       average
 MEMORY| MemTotal            263899264     263899264     263899264     263899264
 MEMORY| MemFree             248645784     248645784     248645784     248645784
 MEMORY| Buffers                199100        199100        199100        199100
 MEMORY| Cached                8142336       8142336       8142336       8142336
 MEMORY| Slab                  3261600       3261600       3261600       3261600
 MEMORY| SReclaimable           984216        984216        984216        984216
 MEMORY| MemLikelyFree       257971436     257971436     257971436     257971436


 *** Fundamental physical constants (SI units) ***

 *** Literature: B. J. Mohr and B. N. Taylor,
 ***             CODATA recommended values of the fundamental physical
 ***             constants: 2006, Web Version 5.1
 ***             http://physics.nist.gov/constants

 Speed of light in vacuum [m/s]                             2.99792458000000E+08
 Magnetic constant or permeability of vacuum [N/A**2]       1.25663706143592E-06
 Electric constant or permittivity of vacuum [F/m]          8.85418781762039E-12
 Planck constant (h) [J*s]                                  6.62606896000000E-34
 Planck constant (h-bar) [J*s]                              1.05457162825177E-34
 Elementary charge [C]                                      1.60217648700000E-19
 Electron mass [kg]                                         9.10938215000000E-31
 Electron g factor [ ]                                     -2.00231930436220E+00
 Proton mass [kg]                                           1.67262163700000E-27
 Fine-structure constant                                    7.29735253760000E-03
 Rydberg constant [1/m]                                     1.09737315685270E+07
 Avogadro constant [1/mol]                                  6.02214179000000E+23
 Boltzmann constant [J/K]                                   1.38065040000000E-23
 Atomic mass unit [kg]                                      1.66053878200000E-27
 Bohr radius [m]                                            5.29177208590000E-11

 *** Conversion factors ***

 [u] -> [a.u.]                                              1.82288848426455E+03
 [Angstrom] -> [Bohr] = [a.u.]                              1.88972613288564E+00
 [a.u.] = [Bohr] -> [Angstrom]                              5.29177208590000E-01
 [a.u.] -> [s]                                              2.41888432650478E-17
 [a.u.] -> [fs]                                             2.41888432650478E-02
 [a.u.] -> [J]                                              4.35974393937059E-18
 [a.u.] -> [N]                                              8.23872205491840E-08
 [a.u.] -> [K]                                              3.15774647902944E+05
 [a.u.] -> [kJ/mol]                                         2.62549961709828E+03
 [a.u.] -> [kcal/mol]                                       6.27509468713739E+02
 [a.u.] -> [Pa]                                             2.94210107994716E+13
 [a.u.] -> [bar]                                            2.94210107994716E+08
 [a.u.] -> [atm]                                            2.90362800883016E+08
 [a.u.] -> [eV]                                             2.72113838565563E+01
 [a.u.] -> [Hz]                                             6.57968392072181E+15
 [a.u.] -> [1/cm] (wave numbers)                            2.19474631370540E+05
 [a.u./Bohr**2] -> [1/cm]                                   5.14048714338585E+03
 

 CELL_TOP| Volume [angstrom^3]:                                       131.694613
 CELL_TOP| Vector a [angstrom     3.184     0.000     0.000   |a| =     3.184000
 CELL_TOP| Vector b [angstrom    -1.592     2.757     0.000   |b| =     3.184000
 CELL_TOP| Vector c [angstrom     0.000     0.000    15.000   |c| =    15.000000
 CELL_TOP| Angle (b,c), alpha [degree]:                                90.000000
 CELL_TOP| Angle (a,c), beta  [degree]:                                90.000000
 CELL_TOP| Angle (a,b), gamma [degree]:                               120.000000
 CELL_TOP| Numerically orthorhombic:                                          NO
 CELL_TOP| Periodicity                                                        XY

 GENERATE|  Preliminary Number of Bonds generated:                             0
 GENERATE|  Achieved consistency in connectivity generation.

 CELL| Volume [angstrom^3]:                                           131.694613
 CELL| Vector a [angstrom]:       3.184     0.000     0.000   |a| =     3.184000
 CELL| Vector b [angstrom]:      -1.592     2.757     0.000   |b| =     3.184000
 CELL| Vector c [angstrom]:       0.000     0.000    15.000   |c| =    15.000000
 CELL| Angle (b,c), alpha [degree]:                                    90.000000
 CELL| Angle (a,c), beta  [degree]:                                    90.000000
 CELL| Angle (a,b), gamma [degree]:                                   120.000000
 CELL| Numerically orthorhombic:                                              NO
 CELL| Periodicity                                                            XY

 CELL_REF| Volume [angstrom^3]:                                       131.694613
 CELL_REF| Vector a [angstrom     3.184     0.000     0.000   |a| =     3.184000
 CELL_REF| Vector b [angstrom    -1.592     2.757     0.000   |b| =     3.184000
 CELL_REF| Vector c [angstrom     0.000     0.000    15.000   |c| =    15.000000
 CELL_REF| Angle (b,c), alpha [degree]:                                90.000000
 CELL_REF| Angle (a,c), beta  [degree]:                                90.000000
 CELL_REF| Angle (a,b), gamma [degree]:                               120.000000
 CELL_REF| Numerically orthorhombic:                                          NO
 CELL_REF| Periodicity                                                        XY

 *******************************************************************************
                                    Kpoints
 *******************************************************************************
 BRILLOUIN| K-point scheme                                        Monkhorst-Pack
 BRILLOUIN| K-Point grid                                            24   24    1
 BRILLOUIN| Accuracy in Symmetry determination                      0.100000E-05
 BRILLOUIN| K-Point point group symmetrization                               OFF
 BRILLOUIN| Wavefunction type                                            COMPLEX
 BRILLOUIN| List of Kpoints [2 Pi/Bohr]                                      288
 BRILLOUIN| Number           Weight            X              Y              Z
 BRILLOUIN|     1           0.00347       -0.47917       -0.47917        0.00000
 BRILLOUIN|     2           0.00347       -0.47917       -0.43750        0.00000
 BRILLOUIN|     3           0.00347       -0.47917       -0.39583        0.00000
 BRILLOUIN|     4           0.00347       -0.47917       -0.35417        0.00000
 BRILLOUIN|     5           0.00347       -0.47917       -0.31250        0.00000
 BRILLOUIN|     6           0.00347       -0.47917       -0.27083        0.00000
 BRILLOUIN|     7           0.00347       -0.47917       -0.22917        0.00000
 BRILLOUIN|     8           0.00347       -0.47917       -0.18750        0.00000
 BRILLOUIN|     9           0.00347       -0.47917       -0.14583        0.00000
 BRILLOUIN|    10           0.00347       -0.47917       -0.10417        0.00000
 BRILLOUIN|    11           0.00347       -0.47917       -0.06250        0.00000
 BRILLOUIN|    12           0.00347       -0.47917       -0.02083        0.00000
 BRILLOUIN|    13           0.00347       -0.47917        0.02083        0.00000
 BRILLOUIN|    14           0.00347       -0.47917        0.06250        0.00000
 BRILLOUIN|    15           0.00347       -0.47917        0.10417        0.00000
 BRILLOUIN|    16           0.00347       -0.47917        0.14583        0.00000
 BRILLOUIN|    17           0.00347       -0.47917        0.18750        0.00000
 BRILLOUIN|    18           0.00347       -0.47917        0.22917        0.00000
 BRILLOUIN|    19           0.00347       -0.47917        0.27083        0.00000
 BRILLOUIN|    20           0.00347       -0.47917        0.31250        0.00000
 BRILLOUIN|    21           0.00347       -0.47917        0.35417        0.00000
 BRILLOUIN|    22           0.00347       -0.47917        0.39583        0.00000
 BRILLOUIN|    23           0.00347       -0.47917        0.43750        0.00000
 BRILLOUIN|    24           0.00347       -0.47917        0.47917        0.00000
 BRILLOUIN|    25           0.00347       -0.43750       -0.47917        0.00000
 BRILLOUIN|    26           0.00347       -0.43750       -0.43750        0.00000
 BRILLOUIN|    27           0.00347       -0.43750       -0.39583        0.00000
 BRILLOUIN|    28           0.00347       -0.43750       -0.35417        0.00000
 BRILLOUIN|    29           0.00347       -0.43750       -0.31250        0.00000
 BRILLOUIN|    30           0.00347       -0.43750       -0.27083        0.00000
 BRILLOUIN|    31           0.00347       -0.43750       -0.22917        0.00000
 BRILLOUIN|    32           0.00347       -0.43750       -0.18750        0.00000
 BRILLOUIN|    33           0.00347       -0.43750       -0.14583        0.00000
 BRILLOUIN|    34           0.00347       -0.43750       -0.10417        0.00000
 BRILLOUIN|    35           0.00347       -0.43750       -0.06250        0.00000
 BRILLOUIN|    36           0.00347       -0.43750       -0.02083        0.00000
 BRILLOUIN|    37           0.00347       -0.43750        0.02083        0.00000
 BRILLOUIN|    38           0.00347       -0.43750        0.06250        0.00000
 BRILLOUIN|    39           0.00347       -0.43750        0.10417        0.00000
 BRILLOUIN|    40           0.00347       -0.43750        0.14583        0.00000
 BRILLOUIN|    41           0.00347       -0.43750        0.18750        0.00000
 BRILLOUIN|    42           0.00347       -0.43750        0.22917        0.00000
 BRILLOUIN|    43           0.00347       -0.43750        0.27083        0.00000
 BRILLOUIN|    44           0.00347       -0.43750        0.31250        0.00000
 BRILLOUIN|    45           0.00347       -0.43750        0.35417        0.00000
 BRILLOUIN|    46           0.00347       -0.43750        0.39583        0.00000
 BRILLOUIN|    47           0.00347       -0.43750        0.43750        0.00000
 BRILLOUIN|    48           0.00347       -0.43750        0.47917        0.00000
 BRILLOUIN|    49           0.00347       -0.39583       -0.47917        0.00000
 BRILLOUIN|    50           0.00347       -0.39583       -0.43750        0.00000
 BRILLOUIN|    51           0.00347       -0.39583       -0.39583        0.00000
 BRILLOUIN|    52           0.00347       -0.39583       -0.35417        0.00000
 BRILLOUIN|    53           0.00347       -0.39583       -0.31250        0.00000
 BRILLOUIN|    54           0.00347       -0.39583       -0.27083        0.00000
 BRILLOUIN|    55           0.00347       -0.39583       -0.22917        0.00000
 BRILLOUIN|    56           0.00347       -0.39583       -0.18750        0.00000
 BRILLOUIN|    57           0.00347       -0.39583       -0.14583        0.00000
 BRILLOUIN|    58           0.00347       -0.39583       -0.10417        0.00000
 BRILLOUIN|    59           0.00347       -0.39583       -0.06250        0.00000
 BRILLOUIN|    60           0.00347       -0.39583       -0.02083        0.00000
 BRILLOUIN|    61           0.00347       -0.39583        0.02083        0.00000
 BRILLOUIN|    62           0.00347       -0.39583        0.06250        0.00000
 BRILLOUIN|    63           0.00347       -0.39583        0.10417        0.00000
 BRILLOUIN|    64           0.00347       -0.39583        0.14583        0.00000
 BRILLOUIN|    65           0.00347       -0.39583        0.18750        0.00000
 BRILLOUIN|    66           0.00347       -0.39583        0.22917        0.00000
 BRILLOUIN|    67           0.00347       -0.39583        0.27083        0.00000
 BRILLOUIN|    68           0.00347       -0.39583        0.31250        0.00000
 BRILLOUIN|    69           0.00347       -0.39583        0.35417        0.00000
 BRILLOUIN|    70           0.00347       -0.39583        0.39583        0.00000
 BRILLOUIN|    71           0.00347       -0.39583        0.43750        0.00000
 BRILLOUIN|    72           0.00347       -0.39583        0.47917        0.00000
 BRILLOUIN|    73           0.00347       -0.35417       -0.47917        0.00000
 BRILLOUIN|    74           0.00347       -0.35417       -0.43750        0.00000
 BRILLOUIN|    75           0.00347       -0.35417       -0.39583        0.00000
 BRILLOUIN|    76           0.00347       -0.35417       -0.35417        0.00000
 BRILLOUIN|    77           0.00347       -0.35417       -0.31250        0.00000
 BRILLOUIN|    78           0.00347       -0.35417       -0.27083        0.00000
 BRILLOUIN|    79           0.00347       -0.35417       -0.22917        0.00000
 BRILLOUIN|    80           0.00347       -0.35417       -0.18750        0.00000
 BRILLOUIN|    81           0.00347       -0.35417       -0.14583        0.00000
 BRILLOUIN|    82           0.00347       -0.35417       -0.10417        0.00000
 BRILLOUIN|    83           0.00347       -0.35417       -0.06250        0.00000
 BRILLOUIN|    84           0.00347       -0.35417       -0.02083        0.00000
 BRILLOUIN|    85           0.00347       -0.35417        0.02083        0.00000
 BRILLOUIN|    86           0.00347       -0.35417        0.06250        0.00000
 BRILLOUIN|    87           0.00347       -0.35417        0.10417        0.00000
 BRILLOUIN|    88           0.00347       -0.35417        0.14583        0.00000
 BRILLOUIN|    89           0.00347       -0.35417        0.18750        0.00000
 BRILLOUIN|    90           0.00347       -0.35417        0.22917        0.00000
 BRILLOUIN|    91           0.00347       -0.35417        0.27083        0.00000
 BRILLOUIN|    92           0.00347       -0.35417        0.31250        0.00000
 BRILLOUIN|    93           0.00347       -0.35417        0.35417        0.00000
 BRILLOUIN|    94           0.00347       -0.35417        0.39583        0.00000
 BRILLOUIN|    95           0.00347       -0.35417        0.43750        0.00000
 BRILLOUIN|    96           0.00347       -0.35417        0.47917        0.00000
 BRILLOUIN|    97           0.00347       -0.31250       -0.47917        0.00000
 BRILLOUIN|    98           0.00347       -0.31250       -0.43750        0.00000
 BRILLOUIN|    99           0.00347       -0.31250       -0.39583        0.00000
 BRILLOUIN|   100           0.00347       -0.31250       -0.35417        0.00000
 BRILLOUIN|   101           0.00347       -0.31250       -0.31250        0.00000
 BRILLOUIN|   102           0.00347       -0.31250       -0.27083        0.00000
 BRILLOUIN|   103           0.00347       -0.31250       -0.22917        0.00000
 BRILLOUIN|   104           0.00347       -0.31250       -0.18750        0.00000
 BRILLOUIN|   105           0.00347       -0.31250       -0.14583        0.00000
 BRILLOUIN|   106           0.00347       -0.31250       -0.10417        0.00000
 BRILLOUIN|   107           0.00347       -0.31250       -0.06250        0.00000
 BRILLOUIN|   108           0.00347       -0.31250       -0.02083        0.00000
 BRILLOUIN|   109           0.00347       -0.31250        0.02083        0.00000
 BRILLOUIN|   110           0.00347       -0.31250        0.06250        0.00000
 BRILLOUIN|   111           0.00347       -0.31250        0.10417        0.00000
 BRILLOUIN|   112           0.00347       -0.31250        0.14583        0.00000
 BRILLOUIN|   113           0.00347       -0.31250        0.18750        0.00000
 BRILLOUIN|   114           0.00347       -0.31250        0.22917        0.00000
 BRILLOUIN|   115           0.00347       -0.31250        0.27083        0.00000
 BRILLOUIN|   116           0.00347       -0.31250        0.31250        0.00000
 BRILLOUIN|   117           0.00347       -0.31250        0.35417        0.00000
 BRILLOUIN|   118           0.00347       -0.31250        0.39583        0.00000
 BRILLOUIN|   119           0.00347       -0.31250        0.43750        0.00000
 BRILLOUIN|   120           0.00347       -0.31250        0.47917        0.00000
 BRILLOUIN|   121           0.00347       -0.27083       -0.47917        0.00000
 BRILLOUIN|   122           0.00347       -0.27083       -0.43750        0.00000
 BRILLOUIN|   123           0.00347       -0.27083       -0.39583        0.00000
 BRILLOUIN|   124           0.00347       -0.27083       -0.35417        0.00000
 BRILLOUIN|   125           0.00347       -0.27083       -0.31250        0.00000
 BRILLOUIN|   126           0.00347       -0.27083       -0.27083        0.00000
 BRILLOUIN|   127           0.00347       -0.27083       -0.22917        0.00000
 BRILLOUIN|   128           0.00347       -0.27083       -0.18750        0.00000
 BRILLOUIN|   129           0.00347       -0.27083       -0.14583        0.00000
 BRILLOUIN|   130           0.00347       -0.27083       -0.10417        0.00000
 BRILLOUIN|   131           0.00347       -0.27083       -0.06250        0.00000
 BRILLOUIN|   132           0.00347       -0.27083       -0.02083        0.00000
 BRILLOUIN|   133           0.00347       -0.27083        0.02083        0.00000
 BRILLOUIN|   134           0.00347       -0.27083        0.06250        0.00000
 BRILLOUIN|   135           0.00347       -0.27083        0.10417        0.00000
 BRILLOUIN|   136           0.00347       -0.27083        0.14583        0.00000
 BRILLOUIN|   137           0.00347       -0.27083        0.18750        0.00000
 BRILLOUIN|   138           0.00347       -0.27083        0.22917        0.00000
 BRILLOUIN|   139           0.00347       -0.27083        0.27083        0.00000
 BRILLOUIN|   140           0.00347       -0.27083        0.31250        0.00000
 BRILLOUIN|   141           0.00347       -0.27083        0.35417        0.00000
 BRILLOUIN|   142           0.00347       -0.27083        0.39583        0.00000
 BRILLOUIN|   143           0.00347       -0.27083        0.43750        0.00000
 BRILLOUIN|   144           0.00347       -0.27083        0.47917        0.00000
 BRILLOUIN|   145           0.00347       -0.22917       -0.47917        0.00000
 BRILLOUIN|   146           0.00347       -0.22917       -0.43750        0.00000
 BRILLOUIN|   147           0.00347       -0.22917       -0.39583        0.00000
 BRILLOUIN|   148           0.00347       -0.22917       -0.35417        0.00000
 BRILLOUIN|   149           0.00347       -0.22917       -0.31250        0.00000
 BRILLOUIN|   150           0.00347       -0.22917       -0.27083        0.00000
 BRILLOUIN|   151           0.00347       -0.22917       -0.22917        0.00000
 BRILLOUIN|   152           0.00347       -0.22917       -0.18750        0.00000
 BRILLOUIN|   153           0.00347       -0.22917       -0.14583        0.00000
 BRILLOUIN|   154           0.00347       -0.22917       -0.10417        0.00000
 BRILLOUIN|   155           0.00347       -0.22917       -0.06250        0.00000
 BRILLOUIN|   156           0.00347       -0.22917       -0.02083        0.00000
 BRILLOUIN|   157           0.00347       -0.22917        0.02083        0.00000
 BRILLOUIN|   158           0.00347       -0.22917        0.06250        0.00000
 BRILLOUIN|   159           0.00347       -0.22917        0.10417        0.00000
 BRILLOUIN|   160           0.00347       -0.22917        0.14583        0.00000
 BRILLOUIN|   161           0.00347       -0.22917        0.18750        0.00000
 BRILLOUIN|   162           0.00347       -0.22917        0.22917        0.00000
 BRILLOUIN|   163           0.00347       -0.22917        0.27083        0.00000
 BRILLOUIN|   164           0.00347       -0.22917        0.31250        0.00000
 BRILLOUIN|   165           0.00347       -0.22917        0.35417        0.00000
 BRILLOUIN|   166           0.00347       -0.22917        0.39583        0.00000
 BRILLOUIN|   167           0.00347       -0.22917        0.43750        0.00000
 BRILLOUIN|   168           0.00347       -0.22917        0.47917        0.00000
 BRILLOUIN|   169           0.00347       -0.18750       -0.47917        0.00000
 BRILLOUIN|   170           0.00347       -0.18750       -0.43750        0.00000
 BRILLOUIN|   171           0.00347       -0.18750       -0.39583        0.00000
 BRILLOUIN|   172           0.00347       -0.18750       -0.35417        0.00000
 BRILLOUIN|   173           0.00347       -0.18750       -0.31250        0.00000
 BRILLOUIN|   174           0.00347       -0.18750       -0.27083        0.00000
 BRILLOUIN|   175           0.00347       -0.18750       -0.22917        0.00000
 BRILLOUIN|   176           0.00347       -0.18750       -0.18750        0.00000
 BRILLOUIN|   177           0.00347       -0.18750       -0.14583        0.00000
 BRILLOUIN|   178           0.00347       -0.18750       -0.10417        0.00000
 BRILLOUIN|   179           0.00347       -0.18750       -0.06250        0.00000
 BRILLOUIN|   180           0.00347       -0.18750       -0.02083        0.00000
 BRILLOUIN|   181           0.00347       -0.18750        0.02083        0.00000
 BRILLOUIN|   182           0.00347       -0.18750        0.06250        0.00000
 BRILLOUIN|   183           0.00347       -0.18750        0.10417        0.00000
 BRILLOUIN|   184           0.00347       -0.18750        0.14583        0.00000
 BRILLOUIN|   185           0.00347       -0.18750        0.18750        0.00000
 BRILLOUIN|   186           0.00347       -0.18750        0.22917        0.00000
 BRILLOUIN|   187           0.00347       -0.18750        0.27083        0.00000
 BRILLOUIN|   188           0.00347       -0.18750        0.31250        0.00000
 BRILLOUIN|   189           0.00347       -0.18750        0.35417        0.00000
 BRILLOUIN|   190           0.00347       -0.18750        0.39583        0.00000
 BRILLOUIN|   191           0.00347       -0.18750        0.43750        0.00000
 BRILLOUIN|   192           0.00347       -0.18750        0.47917        0.00000
 BRILLOUIN|   193           0.00347       -0.14583       -0.47917        0.00000
 BRILLOUIN|   194           0.00347       -0.14583       -0.43750        0.00000
 BRILLOUIN|   195           0.00347       -0.14583       -0.39583        0.00000
 BRILLOUIN|   196           0.00347       -0.14583       -0.35417        0.00000
 BRILLOUIN|   197           0.00347       -0.14583       -0.31250        0.00000
 BRILLOUIN|   198           0.00347       -0.14583       -0.27083        0.00000
 BRILLOUIN|   199           0.00347       -0.14583       -0.22917        0.00000
 BRILLOUIN|   200           0.00347       -0.14583       -0.18750        0.00000
 BRILLOUIN|   201           0.00347       -0.14583       -0.14583        0.00000
 BRILLOUIN|   202           0.00347       -0.14583       -0.10417        0.00000
 BRILLOUIN|   203           0.00347       -0.14583       -0.06250        0.00000
 BRILLOUIN|   204           0.00347       -0.14583       -0.02083        0.00000
 BRILLOUIN|   205           0.00347       -0.14583        0.02083        0.00000
 BRILLOUIN|   206           0.00347       -0.14583        0.06250        0.00000
 BRILLOUIN|   207           0.00347       -0.14583        0.10417        0.00000
 BRILLOUIN|   208           0.00347       -0.14583        0.14583        0.00000
 BRILLOUIN|   209           0.00347       -0.14583        0.18750        0.00000
 BRILLOUIN|   210           0.00347       -0.14583        0.22917        0.00000
 BRILLOUIN|   211           0.00347       -0.14583        0.27083        0.00000
 BRILLOUIN|   212           0.00347       -0.14583        0.31250        0.00000
 BRILLOUIN|   213           0.00347       -0.14583        0.35417        0.00000
 BRILLOUIN|   214           0.00347       -0.14583        0.39583        0.00000
 BRILLOUIN|   215           0.00347       -0.14583        0.43750        0.00000
 BRILLOUIN|   216           0.00347       -0.14583        0.47917        0.00000
 BRILLOUIN|   217           0.00347       -0.10417       -0.47917        0.00000
 BRILLOUIN|   218           0.00347       -0.10417       -0.43750        0.00000
 BRILLOUIN|   219           0.00347       -0.10417       -0.39583        0.00000
 BRILLOUIN|   220           0.00347       -0.10417       -0.35417        0.00000
 BRILLOUIN|   221           0.00347       -0.10417       -0.31250        0.00000
 BRILLOUIN|   222           0.00347       -0.10417       -0.27083        0.00000
 BRILLOUIN|   223           0.00347       -0.10417       -0.22917        0.00000
 BRILLOUIN|   224           0.00347       -0.10417       -0.18750        0.00000
 BRILLOUIN|   225           0.00347       -0.10417       -0.14583        0.00000
 BRILLOUIN|   226           0.00347       -0.10417       -0.10417        0.00000
 BRILLOUIN|   227           0.00347       -0.10417       -0.06250        0.00000
 BRILLOUIN|   228           0.00347       -0.10417       -0.02083        0.00000
 BRILLOUIN|   229           0.00347       -0.10417        0.02083        0.00000
 BRILLOUIN|   230           0.00347       -0.10417        0.06250        0.00000
 BRILLOUIN|   231           0.00347       -0.10417        0.10417        0.00000
 BRILLOUIN|   232           0.00347       -0.10417        0.14583        0.00000
 BRILLOUIN|   233           0.00347       -0.10417        0.18750        0.00000
 BRILLOUIN|   234           0.00347       -0.10417        0.22917        0.00000
 BRILLOUIN|   235           0.00347       -0.10417        0.27083        0.00000
 BRILLOUIN|   236           0.00347       -0.10417        0.31250        0.00000
 BRILLOUIN|   237           0.00347       -0.10417        0.35417        0.00000
 BRILLOUIN|   238           0.00347       -0.10417        0.39583        0.00000
 BRILLOUIN|   239           0.00347       -0.10417        0.43750        0.00000
 BRILLOUIN|   240           0.00347       -0.10417        0.47917        0.00000
 BRILLOUIN|   241           0.00347       -0.06250       -0.47917        0.00000
 BRILLOUIN|   242           0.00347       -0.06250       -0.43750        0.00000
 BRILLOUIN|   243           0.00347       -0.06250       -0.39583        0.00000
 BRILLOUIN|   244           0.00347       -0.06250       -0.35417        0.00000
 BRILLOUIN|   245           0.00347       -0.06250       -0.31250        0.00000
 BRILLOUIN|   246           0.00347       -0.06250       -0.27083        0.00000
 BRILLOUIN|   247           0.00347       -0.06250       -0.22917        0.00000
 BRILLOUIN|   248           0.00347       -0.06250       -0.18750        0.00000
 BRILLOUIN|   249           0.00347       -0.06250       -0.14583        0.00000
 BRILLOUIN|   250           0.00347       -0.06250       -0.10417        0.00000
 BRILLOUIN|   251           0.00347       -0.06250       -0.06250        0.00000
 BRILLOUIN|   252           0.00347       -0.06250       -0.02083        0.00000
 BRILLOUIN|   253           0.00347       -0.06250        0.02083        0.00000
 BRILLOUIN|   254           0.00347       -0.06250        0.06250        0.00000
 BRILLOUIN|   255           0.00347       -0.06250        0.10417        0.00000
 BRILLOUIN|   256           0.00347       -0.06250        0.14583        0.00000
 BRILLOUIN|   257           0.00347       -0.06250        0.18750        0.00000
 BRILLOUIN|   258           0.00347       -0.06250        0.22917        0.00000
 BRILLOUIN|   259           0.00347       -0.06250        0.27083        0.00000
 BRILLOUIN|   260           0.00347       -0.06250        0.31250        0.00000
 BRILLOUIN|   261           0.00347       -0.06250        0.35417        0.00000
 BRILLOUIN|   262           0.00347       -0.06250        0.39583        0.00000
 BRILLOUIN|   263           0.00347       -0.06250        0.43750        0.00000
 BRILLOUIN|   264           0.00347       -0.06250        0.47917        0.00000
 BRILLOUIN|   265           0.00347       -0.02083       -0.47917        0.00000
 BRILLOUIN|   266           0.00347       -0.02083       -0.43750        0.00000
 BRILLOUIN|   267           0.00347       -0.02083       -0.39583        0.00000
 BRILLOUIN|   268           0.00347       -0.02083       -0.35417        0.00000
 BRILLOUIN|   269           0.00347       -0.02083       -0.31250        0.00000
 BRILLOUIN|   270           0.00347       -0.02083       -0.27083        0.00000
 BRILLOUIN|   271           0.00347       -0.02083       -0.22917        0.00000
 BRILLOUIN|   272           0.00347       -0.02083       -0.18750        0.00000
 BRILLOUIN|   273           0.00347       -0.02083       -0.14583        0.00000
 BRILLOUIN|   274           0.00347       -0.02083       -0.10417        0.00000
 BRILLOUIN|   275           0.00347       -0.02083       -0.06250        0.00000
 BRILLOUIN|   276           0.00347       -0.02083       -0.02083        0.00000
 BRILLOUIN|   277           0.00347       -0.02083        0.02083        0.00000
 BRILLOUIN|   278           0.00347       -0.02083        0.06250        0.00000
 BRILLOUIN|   279           0.00347       -0.02083        0.10417        0.00000
 BRILLOUIN|   280           0.00347       -0.02083        0.14583        0.00000
 BRILLOUIN|   281           0.00347       -0.02083        0.18750        0.00000
 BRILLOUIN|   282           0.00347       -0.02083        0.22917        0.00000
 BRILLOUIN|   283           0.00347       -0.02083        0.27083        0.00000
 BRILLOUIN|   284           0.00347       -0.02083        0.31250        0.00000
 BRILLOUIN|   285           0.00347       -0.02083        0.35417        0.00000
 BRILLOUIN|   286           0.00347       -0.02083        0.39583        0.00000
 BRILLOUIN|   287           0.00347       -0.02083        0.43750        0.00000
 BRILLOUIN|   288           0.00347       -0.02083        0.47917        0.00000
 *******************************************************************************

 *******************************************************************************
 *******************************************************************************
 **                                                                           **
 **     #####                         ##              ##                      **
 **    ##   ##            ##          ##              ##                      **
 **   ##     ##                       ##            ######                    **
 **   ##     ##  ##   ##  ##   #####  ##  ##   ####   ##    #####    #####    **
 **   ##     ##  ##   ##  ##  ##      ## ##   ##      ##   ##   ##  ##   ##   **
 **   ##  ## ##  ##   ##  ##  ##      ####     ###    ##   ######   ######    **
 **    ##  ###   ##   ##  ##  ##      ## ##      ##   ##   ##       ##        **
 **     #######   #####   ##   #####  ##  ##  ####    ##    #####   ##        **
 **           ##                                                    ##        **
 **                                                                           **
 **                                                ... make the atoms dance   **
 **                                                                           **
 **            Copyright (C) by CP2K developers group (2000-2025)             **
 **                      J. Chem. Phys. 152, 194103 (2020)                    **
 **                                                                           **
 *******************************************************************************

 DFT| Spin restricted Kohn-Sham (RKS) calculation                            RKS
 DFT| Multiplicity                                                             1
 DFT| Number of spin states                                                    1
 DFT| Charge                                                                   0
 DFT| Self-interaction correction (SIC)                                       NO
 DFT| Cutoffs: density                                              1.000000E-10
 DFT|          gradient                                             1.000000E-10
 DFT|          tau                                                  1.000000E-10
 DFT|          cutoff_smoothing_range                               0.000000E+00
 DFT| XC density smoothing                                                  NONE
 DFT| XC derivatives                                                          PW

 FUNCTIONAL| PBE:
 FUNCTIONAL| J.P.Perdew, K.Burke, M.Ernzerhof, Phys. Rev. Letter, vol. 77, n 18,
 FUNCTIONAL|  pp. 3865-3868, (1996) {spin unpolarized}                          


 QS| Method:                                                                GAPW
 QS| Density plane wave grid type                        NON-SPHERICAL FULLSPACE
 QS| Number of grid levels:                                                    4
 QS| Density cutoff [a.u.]:                                                250.0
 QS| Multi grid cutoff [a.u.]: 1) grid level                               250.0
 QS|                           2) grid level                                83.3
 QS|                           3) grid level                                27.8
 QS|                           4) grid level                                 9.3
 QS| Grid level progression factor:                                          3.0
 QS| Relative density cutoff [a.u.]:                                        50.0
 QS| Interaction thresholds: eps_pgf_orb:                                1.0E-12
 QS|                         eps_filter_matrix:                          0.0E+00
 QS|                         eps_core_charge:                            1.0E-14
 QS|                         eps_rho_gspace:                             1.0E-12
 QS|                         eps_rho_rspace:                             1.0E-12
 QS|                         eps_gvg_rspace:                             1.0E-06
 QS|                         eps_ppl:                                    1.0E-02
 QS|                         eps_ppnl:                                   1.0E-08
 QS| GAPW|      One center basis from orbital basis primitives
 QS| GAPW|                   eps_fit:                                    1.0E-04
 QS| GAPW|                   eps_iso:                                    1.0E-12
 QS| GAPW|                   eps_svd:                                    1.0E-08
 QS| GAPW|                   eps_cpc:                                    1.0E-12
 QS| GAPW|   atom-r-grid: quadrature:                                     GC_LOG
 QS| GAPW|      atom-s-grid:  max l :                                          6
 QS| GAPW|      max_l_rho0 :                                                   2
 QS| GAPW|      At least one kind is NOT PAW, i.e. it has only soft AO 
 QS| GAPW|      The NOT PAW atoms are treated fully GPW


 ATOMIC KIND INFORMATION

  1. Atomic kind: Mo                                    Number of atoms:       1

     Orbital Basis Set                                        aug-SZV-MOLOPT-GTH

       Number of orbital shell sets:                                           1
       Number of orbital shells:                                               8
       Number of primitive Cartesian functions:                                7
       Number of Cartesian basis functions:                                   31
       Number of spherical basis functions:                                   26
       Norm type:                                                              2

       Normalised Cartesian orbitals:

                        Set   Shell   Orbital            Exponent    Coefficient

                          1       1    2s                0.052949       0.001981
                                                         0.083802      -0.010762
                                                         0.189498       0.027372
                                                         0.439257       0.078864
                                                         0.894040       0.689563
                                                         1.999996       0.475974
                                                         2.540273      -1.291314

                          1       2    3s                0.052949      -0.030340
                                                         0.083802      -0.064725
                                                         0.189498      -0.028997
                                                         0.439257       0.016258
                                                         0.894040       0.125661
                                                         1.999996      -0.186721
                                                         2.540273       0.199824

                          1       3    4s                0.052949       0.000293
                                                         0.083802       0.017891
                                                         0.189498       0.174119
                                                         0.439257       0.000338
                                                         0.894040       0.000124
                                                         1.999996       0.000000
                                                         2.540273       0.000000

                          1       4    3px               0.052949       0.000064
                                                         0.083802      -0.000118
                                                         0.189498      -0.006020
                                                         0.439257      -0.180857
                                                         0.894040      -0.605502
                                                         1.999996      -2.548091
                                                         2.540273       2.808966
                          1       4    3py               0.052949       0.000064
                                                         0.083802      -0.000118
                                                         0.189498      -0.006020
                                                         0.439257      -0.180857
                                                         0.894040      -0.605502
                                                         1.999996      -2.548091
                                                         2.540273       2.808966
                          1       4    3pz               0.052949       0.000064
                                                         0.083802      -0.000118
                                                         0.189498      -0.006020
                                                         0.439257      -0.180857
                                                         0.894040      -0.605502
                                                         1.999996      -2.548091
                                                         2.540273       2.808966

                          1       5    4px               0.052949       0.016064
                                                         0.083802       0.029646
                                                         0.189498       0.043571
                                                         0.439257      -0.099073
                                                         0.894040       0.009322
                                                         1.999996       0.000000
                                                         2.540273       0.000000
                          1       5    4py               0.052949       0.016064
                                                         0.083802       0.029646
                                                         0.189498       0.043571
                                                         0.439257      -0.099073
                                                         0.894040       0.009322
                                                         1.999996       0.000000
                                                         2.540273       0.000000
                          1       5    4pz               0.052949       0.016064
                                                         0.083802       0.029646
                                                         0.189498       0.043571
                                                         0.439257      -0.099073
                                                         0.894040       0.009322
                                                         1.999996       0.000000
                                                         2.540273       0.000000

                          1       6    4dx2              0.052949       0.000173
                                                         0.083802       0.001355
                                                         0.189498       0.023725
                                                         0.439257       0.160904
                                                         0.894040       0.370223
                                                         1.999996       2.115795
                                                         2.540273      -1.655651
                          1       6    4dxy              0.052949       0.000300
                                                         0.083802       0.002348
                                                         0.189498       0.041094
                                                         0.439257       0.278694
                                                         0.894040       0.641245
                                                         1.999996       3.664664
                                                         2.540273      -2.867672
                          1       6    4dxz              0.052949       0.000300
                                                         0.083802       0.002348
                                                         0.189498       0.041094
                                                         0.439257       0.278694
                                                         0.894040       0.641245
                                                         1.999996       3.664664
                                                         2.540273      -2.867672
                          1       6    4dy2              0.052949       0.000173
                                                         0.083802       0.001355
                                                         0.189498       0.023725
                                                         0.439257       0.160904
                                                         0.894040       0.370223
                                                         1.999996       2.115795
                                                         2.540273      -1.655651
                          1       6    4dyz              0.052949       0.000300
                                                         0.083802       0.002348
                                                         0.189498       0.041094
                                                         0.439257       0.278694
                                                         0.894040       0.641245
                                                         1.999996       3.664664
                                                         2.540273      -2.867672
                          1       6    4dz2              0.052949       0.000173
                                                         0.083802       0.001355
                                                         0.189498       0.023725
                                                         0.439257       0.160904
                                                         0.894040       0.370223
                                                         1.999996       2.115795
                                                         2.540273      -1.655651

                          1       7    5dx2              0.052949       0.000036
                                                         0.083802       0.003451
                                                         0.189498       0.050397
                                                         0.439257       0.185190
                                                         0.894040      -0.191024
                                                         1.999996       0.000000
                                                         2.540273       0.000000
                          1       7    5dxy              0.052949       0.000062
                                                         0.083802       0.005978
                                                         0.189498       0.087290
                                                         0.439257       0.320758
                                                         0.894040      -0.330863
                                                         1.999996       0.000000
                                                         2.540273       0.000000
                          1       7    5dxz              0.052949       0.000062
                                                         0.083802       0.005978
                                                         0.189498       0.087290
                                                         0.439257       0.320758
                                                         0.894040      -0.330863
                                                         1.999996       0.000000
                                                         2.540273       0.000000
                          1       7    5dy2              0.052949       0.000036
                                                         0.083802       0.003451
                                                         0.189498       0.050397
                                                         0.439257       0.185190
                                                         0.894040      -0.191024
                                                         1.999996       0.000000
                                                         2.540273       0.000000
                          1       7    5dyz              0.052949       0.000062
                                                         0.083802       0.005978
                                                         0.189498       0.087290
                                                         0.439257       0.320758
                                                         0.894040      -0.330863
                                                         1.999996       0.000000
                                                         2.540273       0.000000
                          1       7    5dz2              0.052949       0.000036
                                                         0.083802       0.003451
                                                         0.189498       0.050397
                                                         0.439257       0.185190
                                                         0.894040      -0.191024
                                                         1.999996       0.000000
                                                         2.540273       0.000000

                          1       8    5fx3              0.052949      -0.000274
                                                         0.083802       0.000760
                                                         0.189498       0.005893
                                                         0.439257       0.027686
                                                         0.894040       0.936958
                                                         1.999996       0.000000
                                                         2.540273       0.000000
                          1       8    5fx2y             0.052949      -0.000612
                                                         0.083802       0.001698
                                                         0.189498       0.013177
                                                         0.439257       0.061909
                                                         0.894040       2.095101
                                                         1.999996       0.000000
                                                         2.540273       0.000000
                          1       8    5fx2z             0.052949      -0.000612
                                                         0.083802       0.001698
                                                         0.189498       0.013177
                                                         0.439257       0.061909
                                                         0.894040       2.095101
                                                         1.999996       0.000000
                                                         2.540273       0.000000
                          1       8    5fxy2             0.052949      -0.000612
                                                         0.083802       0.001698
                                                         0.189498       0.013177
                                                         0.439257       0.061909
                                                         0.894040       2.095101
                                                         1.999996       0.000000
                                                         2.540273       0.000000
                          1       8    5fxyz             0.052949      -0.001061
                                                         0.083802       0.002942
                                                         0.189498       0.022824
                                                         0.439257       0.107229
                                                         0.894040       3.628821
                                                         1.999996       0.000000
                                                         2.540273       0.000000
                          1       8    5fxz2             0.052949      -0.000612
                                                         0.083802       0.001698
                                                         0.189498       0.013177
                                                         0.439257       0.061909
                                                         0.894040       2.095101
                                                         1.999996       0.000000
                                                         2.540273       0.000000
                          1       8    5fy3              0.052949      -0.000274
                                                         0.083802       0.000760
                                                         0.189498       0.005893
                                                         0.439257       0.027686
                                                         0.894040       0.936958
                                                         1.999996       0.000000
                                                         2.540273       0.000000
                          1       8    5fy2z             0.052949      -0.000612
                                                         0.083802       0.001698
                                                         0.189498       0.013177
                                                         0.439257       0.061909
                                                         0.894040       2.095101
                                                         1.999996       0.000000
                                                         2.540273       0.000000
                          1       8    5fyz2             0.052949      -0.000612
                                                         0.083802       0.001698
                                                         0.189498       0.013177
                                                         0.439257       0.061909
                                                         0.894040       2.095101
                                                         1.999996       0.000000
                                                         2.540273       0.000000
                          1       8    5fz3              0.052949      -0.000274
                                                         0.083802       0.000760
                                                         0.189498       0.005893
                                                         0.439257       0.027686
                                                         0.894040       0.936958
                                                         1.999996       0.000000
                                                         2.540273       0.000000

     RI Auxiliary Basis Set             RI_aug-SZV-MOLOPT-GTH_N_RI_071_s_p_d_f_g

       Number of orbital shell sets:                                          17
       Number of orbital shells:                                              17
       Number of primitive Cartesian functions:                               17
       Number of Cartesian basis functions:                                  101
       Number of spherical basis functions:                                   71
       Norm type:                                                              2

       Normalised Cartesian orbitals:

                        Set   Shell   Orbital            Exponent    Coefficient

                          1       1    1s                0.131512       0.155645

                          2       1    7px               0.160998       0.145367
                          2       1    7py               0.160998       0.145367
                          2       1    7pz               0.160998       0.145367

                          3       1    2s                0.264634       0.262963

                          4       1   15gx4              0.279187       0.033315
                          4       1   15gx3y             0.279187       0.088144
                          4       1   15gx3z             0.279187       0.088144
                          4       1   15gx2y2            0.279187       0.113794
                          4       1   15gx2yz            0.279187       0.197097
                          4       1   15gx2z2            0.279187       0.113794
                          4       1   15gxy3             0.279187       0.088144
                          4       1   15gxy2z            0.279187       0.197097
                          4       1   15gxyz2            0.279187       0.197097
                          4       1   15gxz3             0.279187       0.088144
                          4       1   15gy4              0.279187       0.033315
                          4       1   15gy3z             0.279187       0.088144
                          4       1   15gy2z2            0.279187       0.113794
                          4       1   15gyz3             0.279187       0.088144
                          4       1   15gz4              0.279187       0.033315

                          5       1    8px               0.394518       0.445680
                          5       1    8py               0.394518       0.445680
                          5       1    8pz               0.394518       0.445680

                          6       1   11dx2              0.395905       0.325233
                          6       1   11dxy              0.395905       0.563320
                          6       1   11dxz              0.395905       0.563320
                          6       1   11dy2              0.395905       0.325233
                          6       1   11dyz              0.395905       0.563320
                          6       1   11dz2              0.395905       0.325233

                          7       1   13fx3              0.522089       0.341099
                          7       1   13fx2y             0.522089       0.762720
                          7       1   13fx2z             0.522089       0.762720
                          7       1   13fxy2             0.522089       0.762720
                          7       1   13fxyz             0.522089       1.321070
                          7       1   13fxz2             0.522089       0.762720
                          7       1   13fy3              0.522089       0.341099
                          7       1   13fy2z             0.522089       0.762720
                          7       1   13fyz2             0.522089       0.762720
                          7       1   13fz3              0.522089       0.341099

                          8       1    3s                0.529077       0.442129

                          9       1    4s                1.047615       0.738008

                         10       1    9px               1.153622       1.704195
                         10       1    9py               1.153622       1.704195
                         10       1    9pz               1.153622       1.704195

                         11       1   12dx2              1.329303       2.708639
                         11       1   12dxy              1.329303       4.691501
                         11       1   12dxz              1.329303       4.691501
                         11       1   12dy2              1.329303       2.708639
                         11       1   12dyz              1.329303       4.691501
                         11       1   12dz2              1.329303       2.708639

                         12       1   14fx3              1.690595       4.797813
                         12       1   14fx2y             1.690595      10.728236
                         12       1   14fx2z             1.690595      10.728236
                         12       1   14fxy2             1.690595      10.728236
                         12       1   14fxyz             1.690595      18.581849
                         12       1   14fxz2             1.690595      10.728236
                         12       1   14fy3              1.690595       4.797813
                         12       1   14fy2z             1.690595      10.728236
                         12       1   14fyz2             1.690595      10.728236
                         12       1   14fz3              1.690595       4.797813

                         13       1   16gx4              2.004716       7.534958
                         13       1   16gx3y             2.004716      19.935625
                         13       1   16gx3z             2.004716      19.935625
                         13       1   16gx2y2            2.004716      25.736781
                         13       1   16gx2yz            2.004716      44.577413
                         13       1   16gx2z2            2.004716      25.736781
                         13       1   16gxy3             2.004716      19.935625
                         13       1   16gxy2z            2.004716      44.577413
                         13       1   16gxyz2            2.004716      44.577413
                         13       1   16gxz3             2.004716      19.935625
                         13       1   16gy4              2.004716       7.534958
                         13       1   16gy3z             2.004716      19.935625
                         13       1   16gy2z2            2.004716      25.736781
                         13       1   16gyz3             2.004716      19.935625
                         13       1   16gz4              2.004716       7.534958

                         14       1    5s                2.095930       1.241488

                         15       1   17hx5              2.117166       8.492732
                         15       1   17hx4y             2.117166      25.478197
                         15       1   17hx4z             2.117166      25.478197
                         15       1   17hx3y2            2.117166      38.918588
                         15       1   17hx3yz            2.117166      67.408973
                         15       1   17hx3z2            2.117166      38.918588
                         15       1   17hx2y3            2.117166      38.918588
                         15       1   17hx2y2z           2.117166      87.024609
                         15       1   17hx2yz2           2.117166      87.024609
                         15       1   17hx2z3            2.117166      38.918588
                         15       1   17hxy4             2.117166      25.478197
                         15       1   17hxy3z            2.117166      67.408973
                         15       1   17hxy2z2           2.117166      87.024609
                         15       1   17hxyz3            2.117166      67.408973
                         15       1   17hxz4             2.117166      25.478197
                         15       1   17hy5              2.117166       8.492732
                         15       1   17hy4z             2.117166      25.478197
                         15       1   17hy3z2            2.117166      38.918588
                         15       1   17hy2z3            2.117166      38.918588
                         15       1   17hyz4             2.117166      25.478197
                         15       1   17hz5              2.117166       8.492732

                         16       1   10px               3.762709       7.469918
                         16       1   10py               3.762709       7.469918
                         16       1   10pz               3.762709       7.469918

                         17       1    6s                4.220249       2.098523

       Atomic covalent radius [Angstrom]:                                  1.300

       Atomic van der Waals radius [Angstrom]:                             1.670

     GTH Potential information for                                   GTH-PBE-q14

       Description:                       Goedecker-Teter-Hutter pseudopotential
                                           Goedecker et al., PRB 54, 1703 (1996)
                                          Hartwigsen et al., PRB 58, 3641 (1998)
                                                      Krack, TCA 114, 145 (2005)

       Gaussian exponent of the core charge distribution:               2.704164
       Electronic configuration (s p d ...):                           3   6   5

       Parameters of the local part of the GTH pseudopotential:

                          rloc        C1          C2          C3          C4
                        0.430000   28.609368   -4.721803

       Parameters of the non-local part of the GTH (SOC) pseudopotential:

                   l      r(l)      h(i,j,l)
                                    k(i,j,l)
                   0    0.345216    0.146303    2.762005
                                    2.762005   -3.565733
                   1    0.416888   -0.190785   -0.728744
                                   -0.728744    0.862262
                                    0.101036    0.157628
                                    0.157628   -0.186508
                   2    0.420508    1.216814   -2.686463
                                   -2.686463    3.046162
                                    0.001360    0.022739
                                    0.022739   -0.025783

  2. Atomic kind: S                                     Number of atoms:       2

     Orbital Basis Set                                        aug-SZV-MOLOPT-GTH

       Number of orbital shell sets:                                           1
       Number of orbital shells:                                               5
       Number of primitive Cartesian functions:                                5
       Number of Cartesian basis functions:                                   14
       Number of spherical basis functions:                                   13
       Norm type:                                                              2

       Normalised Cartesian orbitals:

                        Set   Shell   Orbital            Exponent    Coefficient

                          1       1    2s                0.140587      -0.040370
                                                         0.180000       0.000000
                                                         0.410168      -0.373736
                                                         1.131471       0.138505
                                                         2.215855       0.308496

                          1       2    3s                0.140587       0.215877
                                                         0.180000      -0.063573
                                                         0.410168      -0.003183
                                                         1.131471       0.009148
                                                         2.215855       0.000000

                          1       3    3px               0.140587      -0.030976
                                                         0.180000       0.000000
                                                         0.410168      -0.335323
                                                         1.131471      -0.319283
                                                         2.215855       0.420435
                          1       3    3py               0.140587      -0.030976
                                                         0.180000       0.000000
                                                         0.410168      -0.335323
                                                         1.131471      -0.319283
                                                         2.215855       0.420435
                          1       3    3pz               0.140587      -0.030976
                                                         0.180000       0.000000
                                                         0.410168      -0.335323
                                                         1.131471      -0.319283
                                                         2.215855       0.420435

                          1       4    4px               0.140587       0.232660
                                                         0.180000      -0.187878
                                                         0.410168       0.130536
                                                         1.131471       0.012023
                                                         2.215855       0.000000
                          1       4    4py               0.140587       0.232660
                                                         0.180000      -0.187878
                                                         0.410168       0.130536
                                                         1.131471       0.012023
                                                         2.215855       0.000000
                          1       4    4pz               0.140587       0.232660
                                                         0.180000      -0.187878
                                                         0.410168       0.130536
                                                         1.131471       0.012023
                                                         2.215855       0.000000

                          1       5    4dx2              0.140587       0.037609
                                                         0.180000      -0.002641
                                                         0.410168       0.122637
                                                         1.131471       0.291801
                                                         2.215855       0.000000
                          1       5    4dxy              0.140587       0.065140
                                                         0.180000      -0.004575
                                                         0.410168       0.212413
                                                         1.131471       0.505414
                                                         2.215855       0.000000
                          1       5    4dxz              0.140587       0.065140
                                                         0.180000      -0.004575
                                                         0.410168       0.212413
                                                         1.131471       0.505414
                                                         2.215855       0.000000
                          1       5    4dy2              0.140587       0.037609
                                                         0.180000      -0.002641
                                                         0.410168       0.122637
                                                         1.131471       0.291801
                                                         2.215855       0.000000
                          1       5    4dyz              0.140587       0.065140
                                                         0.180000      -0.004575
                                                         0.410168       0.212413
                                                         1.131471       0.505414
                                                         2.215855       0.000000
                          1       5    4dz2              0.140587       0.037609
                                                         0.180000      -0.002641
                                                         0.410168       0.122637
                                                         1.131471       0.291801
                                                         2.215855       0.000000

     RI Auxiliary Basis Set             RI_aug-SZV-MOLOPT-GTH_N_RI_030_s_p_d_f_g

       Number of orbital shell sets:                                          10
       Number of orbital shells:                                              10
       Number of primitive Cartesian functions:                               10
       Number of Cartesian basis functions:                                   35
       Number of spherical basis functions:                                   30
       Norm type:                                                              2

       Normalised Cartesian orbitals:

                        Set   Shell   Orbital            Exponent    Coefficient

                          1       1    1s                0.220870       0.229621

                          2       1    8dx2              0.302875       0.203527
                          2       1    8dxy              0.302875       0.352518
                          2       1    8dxz              0.302875       0.352518
                          2       1    8dy2              0.302875       0.203527
                          2       1    8dyz              0.302875       0.352518
                          2       1    8dz2              0.302875       0.203527

                          3       1    5px               0.375262       0.418657
                          3       1    5py               0.375262       0.418657
                          3       1    5pz               0.375262       0.418657

                          4       1    2s                0.528149       0.441547

                          5       1   10fx3              0.572308       0.419393
                          5       1   10fx2y             0.572308       0.937792
                          5       1   10fx2z             0.572308       0.937792
                          5       1   10fxy2             0.572308       0.937792
                          5       1   10fxyz             0.572308       1.624303
                          5       1   10fxz2             0.572308       0.937792
                          5       1   10fy3              0.572308       0.419393
                          5       1   10fy2z             0.572308       0.937792
                          5       1   10fyz2             0.572308       0.937792
                          5       1   10fz3              0.572308       0.419393

                          6       1    6px               0.626687       0.794792
                          6       1    6py               0.626687       0.794792
                          6       1    6pz               0.626687       0.794792

                          7       1    9dx2              0.775701       1.055296
                          7       1    9dxy              0.775701       1.827826
                          7       1    9dxz              0.775701       1.827826
                          7       1    9dy2              0.775701       1.055296
                          7       1    9dyz              0.775701       1.827826
                          7       1    9dz2              0.775701       1.055296

                          8       1    3s                1.309927       0.872660

                          9       1    7px               2.407007       4.273530
                          9       1    7py               2.407007       4.273530
                          9       1    7pz               2.407007       4.273530

                         10       1    4s                3.212001       1.709983

       Atomic covalent radius [Angstrom]:                                  1.020

       Atomic van der Waals radius [Angstrom]:                             1.800

     GTH Potential information for                                    GTH-PBE-q6

       Description:                       Goedecker-Teter-Hutter pseudopotential
                                           Goedecker et al., PRB 54, 1703 (1996)
                                          Hartwigsen et al., PRB 58, 3641 (1998)
                                                      Krack, TCA 114, 145 (2005)

       Gaussian exponent of the core charge distribution:               2.834467
       Electronic configuration (s p d ...):                               2   4

       Parameters of the local part of the GTH pseudopotential:

                          rloc        C1          C2          C3          C4
                        0.420000   -5.986260

       Parameters of the non-local part of the GTH (SOC) pseudopotential:

                   l      r(l)      h(i,j,l)
                                    k(i,j,l)
                   0    0.364820   13.143544   -4.241830
[...]
 -                                DBM STATISTICS                               -
 -                                                                             -
 -------------------------------------------------------------------------------
    M  x    N  x    K                                          COUNT     PERCENT
    ?  x    ?  x    ?                                      960566761      49.59%
  ???  x   ??  x   ??                                      639026406      32.99%
   ??  x   ??  x  ???                                      230684056      11.91%
 >999  x   ??  x   ??                                       91413932       4.72%
   ??  x   ??  x >999                                       15165080       0.78%
 -------------------------------------------------------------------------------

 -------------------------------------------------------------------------------
 -                                                                             -
 -                                GRID STATISTICS                              -
 -                                                                             -
 -------------------------------------------------------------------------------
 LP    KERNEL             BACKEND                              COUNT     PERCENT
 5     integrate general  CPU                                 121992      19.19%
 6     integrate general  CPU                                 117988      18.56%
 5     collocate general  CPU                                 117300      18.46%
 6     collocate general  CPU                                 113450      17.85%
 4     integrate general  CPU                                  84032      13.22%
 4     collocate general  CPU                                  80800      12.71%
 0     collocate general  CPU                                      6       0.00%
 0     integrate general  CPU                                      3       0.00%
 -------------------------------------------------------------------------------

 MEMORY| Estimated peak process memory [MiB]                               88077

 -------------------------------------------------------------------------------
 ----                             MULTIGRID INFO                            ----
 -------------------------------------------------------------------------------
 count for grid        1:          14626          cutoff [a.u.]          250.00
 count for grid        2:           9574          cutoff [a.u.]           83.33
 count for grid        3:           9233          cutoff [a.u.]           27.78
 count for grid        4:           1860          cutoff [a.u.]            9.26
 total gridlevel count  :          35293

 -------------------------------------------------------------------------------
 -                                                                             -
 -                         MESSAGE PASSING PERFORMANCE                         -
 -                                                                             -
 -------------------------------------------------------------------------------

 ROUTINE             CALLS      AVE VOLUME [Bytes]
 MP_Group        461767523
 MP_Bcast        291762443                      4.
 MP_Allreduce    962952234                     20.
 MP_Sync        1072187352
 MP_Alltoall     420553588                     12.
 MP_Wait            423360
 MP_comm_split   291254363
 MP_ISend           592704                   3096.
 MP_IRecv           592704                   3096.
 -------------------------------------------------------------------------------


 -------------------------------------------------------------------------------
 -                                                                             -
 -                           R E F E R E N C E S                               -
 -                                                                             -
 -------------------------------------------------------------------------------
 
 CP2K version 2025.1 (Development Version), the CP2K developers group (2025).
 CP2K is freely available from https://www.cp2k.org/ .
 
 M. Graml, K. Zollner, D. Hernangmez-Prez, P. E. Faria Junior, J. Wilhelm.
 J. Chem. Theory Comput. 20, 2202-2208 (2024).
 Low-scaling GW algorithm applied to twisted transition-metal dichalcogenide 
 heterobilayers.
 https://doi.org/10.1021/acs.jctc.3c01230

 T. D. Kuehne, M. Iannuzzi, M. Del Ben, V. V. Rybkin, P. Seewald, F. Stein, T. 
 Laino, R. Z. Khaliullin, O. Schuett, F. Schiffmann, D. Golze, J. Wilhelm, S. 
 Chulkov, M. H. Bani-Hashemian, V. Weber, U. Borstnik, M. Taillefumier, A. S. 
 Jakobovits, A. Lazzaro, H. Pabst, T. Mueller, R. Schade, M. Guidon, S. 
 Andermatt, N. Holmberg, G. K. Schenter, A. Hehn, A. Bussy, F. Belleflamme, G. 
 Tabacchi, A. Gloess, M. Lass, I. Bethune, C. J. Mundy, C. Plessl, M. Watkins, 
 J. VandeVondele, M. Krack, J. Hutter.
 J. Chem. Phys. 152, 194103 (2020).
 CP2K: An electronic structure and molecular dynamics software package - 
 Quickstep: Efficient and accurate electronic structure calculations.
 https://doi.org/10.1063/5.0007045

 A. Togo, I. Tanaka.
 arXiv, 1808.01590 (2018).
 Spglib : a software library for crystal symmetry search.

 O. Schuett, P. Messmer, J. Hutter, J. VandeVondele.
 Electronic Structure Calculations on Graphics Processing Units, 173-190 (2016).
 GPU-Accelerated Sparse Matrix-Matrix Multiplication for Linear Scaling Density 
 Functional Theory.
 https://doi.org/10.1002/9781118670712.ch8

 A. Heinecke, G. Henry, M. Hutchinson, H. Pabst.
 Proceedings of Intl. Supercomputing Conference, 981-991 (2016).
 LIBXSMM: Accelerating Small Matrix Multiplications by Runtime Code Generation.
 https://doi.org/10.1109/SC.2016.83

 J. Hutter, M. Iannuzzi, F. Schiffmann, J. VandeVondele.
 WIREs Comput Mol Sci. 4, 15-25 (2014).
 CP2K: atomistic simulations of condensed matter systems.
 https://doi.org/10.1002/wcms.1159

 U. Borstnik, J. VandeVondele, V. Weber, J. Hutter.
 Parallel Comput. 40, 47-58 (2014).
 Sparse matrix multiplication: The distributed block-compressed sparse row 
 library.
 https://doi.org/10.1016/j.parco.2014.03.012

 A. Marek, V. Blum, R. Johanni, V. Havu, B. Lang, T. Auckenthaler, A. Heinecke, 
 H. Bungartz, H. Lederer.
 J. Phys. Condens. Matter 26, 213201 (2014).
 The ELPA library: scalable parallel eigenvalue solutions for electronic 
 structure theory and computational science.
 https://doi.org/10.1088/0953-8984/26/21/213201

 J. VandeVondele, J. Hutter.
 J. Chem. Phys. 127, 114105 (2007).
 Gaussian basis sets for accurate calculations on molecular systems in gas and 
 condensed phases.
 https://doi.org/10.1063/1.2770708

 M. Krack.
 Theor. Chem. Acc. 114, 145-152 (2005).
 Pseudopotentials for H to Kr optimized for gradient-corrected 
 exchange-correlation functionals.
 https://doi.org/10.1007/s00214-005-0655-y

 M. Frigo, S. G. Johnson.
 Proc. IEEE 93, 216-231 (2005).
 The design and implementation of FFTW3.
 https://doi.org/10.1109/JPROC.2004.840301

 M. Krack, M. Parrinello.
 Phys. Chem. Chem. Phys. 2, 2105-2112 (2000).
 All-electron ab-initio molecular dynamics.
 https://doi.org/10.1039/b001167n

 G. Lippert, J. Hutter, M. Parrinello.
 Theor. Chem. Acc. 103, 124-140 (1999).
 The Gaussian and augmented-plane-wave density functional method for ab initio 
 molecular dynamics simulations.
 https://doi.org/10.1007/s002140050523

 C. Hartwigsen, S. Goedecker, J. Hutter.
 Phys. Rev. B 58, 3641-3662 (1998).
 Relativistic separable dual-space Gaussian pseudopotentials from H to Rn.
 https://doi.org/10.1103/PhysRevB.58.3641

 S. Goedecker, M. Teter, J. Hutter.
 Phys. Rev. B 54, 1703-1710 (1996).
 Separable dual-space Gaussian pseudopotentials.
 https://doi.org/10.1103/PhysRevB.54.1703

 J. P. Perdew, K. Burke, M. Ernzerhof.
 Phys. Rev. Lett. 77, 3865-3868 (1996).
 Generalized gradient approximation made simple.
 https://doi.org/10.1103/PhysRevLett.77.3865


 -------------------------------------------------------------------------------
 -                                                                             -
 -                                T I M I N G                                  -
 -                                                                             -
 -------------------------------------------------------------------------------
 SUBROUTINE                       CALLS  ASD         SELF TIME        TOTAL TIME
                                MAXIMUM       AVERAGE  MAXIMUM  AVERAGE  MAXIMUM
 CP2K                                 1  1.0     0.75     0.75 90873.00 90873.00
 qs_energies                          1  2.0     0.06     0.06 90871.43 90871.43
 qs_energies_properties               1  3.0     0.01     0.01 90794.95 90794.95
 post_scf_bandstructure               1  4.0     0.02     0.02 90794.94 90794.94
 gw                                   1  5.0     0.05     0.05 90785.95 90785.95
 gw_calc_small_cell_full_kp           1  6.0     0.00     0.00 90047.26 90047.26
 dbt_total                      ******* -2.9   531.53   531.53 86617.98 86617.98
 dbt_contract                   ******* 10.6   751.21   751.21 72009.69 72009.69
 dbt_tas_multiply               ******* 13.0    92.14    92.14 66068.01 66068.01
 dbt_tas_total                  ******* 14.0  3910.32  3910.32 66009.40 66009.40
 compute_Sigma_c                      1  7.0     0.06     0.06 49383.34 49383.34
 compute_chi                          1  7.0     1.93     1.93 35997.99 35997.99
 contract_to_Sigma                12159  8.0   406.34   406.34 32416.31 32416.31
 dbt_tas_estimate_result_nze    ******* 13.5  7016.24  7016.24 22906.12 22906.12
 dbt_tas_dbm                    ******* 15.0    83.32    83.32 22586.69 22586.69
 dbm_multiply                   ******* 17.0 22401.20 22401.20 22401.20 22401.20
 contract_W                        6369  8.0    94.24    94.24 20758.27 20758.27
 contract_M_occ_vir_to_chi         5790  8.0   672.72   672.72 18603.28 18603.28
 contract_to_Sigma_3c_x_G       *******  9.0    70.54    70.54 18603.08 18603.08
 G_times_3c                      480260  8.0   104.16   104.16 17372.22 17372.22
 dbt_copy                       ******* 11.1   540.25   540.25 16103.51 16103.51
 contract_to_Sigma_contract      504273  9.0   123.57   123.57 13216.26 13216.26
 dbt_reshape                    ******* 12.0  8914.60  8914.60 11309.55 11309.55
 reshape_mm_small               ******* 15.0  5665.44  5665.44 10978.17 10978.17
 dbt_tas_mm_2                   ******* 16.1    34.85    34.85  9376.30  9376.30
 dbt_tas_mm_3T                  ******* 16.2    27.09    27.09  8734.99  8734.99
 get_t_3c_int                   *******  9.6   282.56   282.56  7860.40  7860.40
 dbt_tas_create_split           *******  1.3   159.87   159.87  6122.61  6122.61
 dbt_tas_create_split_rows_or_c *******  2.3   610.40   610.40  5962.75  5962.75
 dbt_tas_reshape                ******* 15.5   565.10   565.10  5537.66  5537.66
 reshape_mm_compatible          ******* 15.0   806.86   806.86  5524.22  5524.22
 dbt_tas_mm_1N                  ******* 15.5    15.93    15.93  4376.74  4376.74
 dbt_tas_distribution_new       ******* -3.1  2283.64  2283.64  4272.79  4272.79
 change_split                   ******* 15.5   263.91   263.91  3855.42  3855.42
 compute_Sigma_x                      1  7.0     0.00     0.00  3822.77  3822.77
 dbt_remap                      7098487 11.0   647.31   647.31  3420.82  3420.82
 dbt_tas_replicate              ******* 15.0  1533.48  1533.48  3327.39  3327.39
 convert_to_new_pgrid           *******  0.6   523.97   523.97  3211.67  3211.67
 mp_cart_create                 ******* -1.8  2640.48  2640.48  2969.26  2969.26
 dbm_copy                       ******* -5.6  2687.71  2687.71  2687.71  2687.71
 dbt_tas_reshape_buffer_fill    ******* 16.5  2505.34  2505.34  2505.34  2505.34
 dbm_reserve_blocks             ******* -0.9  2391.11  2391.11  2391.11  2391.11
 dbt_tas_reserve_blocks_index   *******  4.8   283.17   283.17  2370.78  2370.78
 mp_comm_dup                    *******  0.8  1892.35  1892.35  2011.98  2011.98
 dbt_tas_copy                   ******* 12.6  1336.79  1336.79  1825.16  1825.16
 dbt_tas_reshape_buffer_obtain  ******* 16.5  1235.44  1235.44  1786.25  1786.25
 dbt_permute_index              ******* -5.2  1490.61  1490.61  1682.53  1682.53
 dbt_copy_nocomm                ******* 11.0  1370.34  1370.34  1660.85  1660.85
 dbt_reserve_blocks_index_array ******* 13.0    86.89    86.89  1301.37  1301.37
 mp_comm_split_direct           *******  3.3  1210.17  1210.17  1290.94  1290.94
 dbt_communicate_buffer         ******* 13.0  1259.27  1259.27  1259.27  1259.27
 dbt_reserve_blocks_index       ******* 14.0   145.27   145.27  1215.53  1215.53
 mp_comm_free                   ******* -1.5  1167.13  1167.13  1167.13  1167.13
 dbt_tas_create_new             *******  3.7  1163.68  1163.68  1163.68  1163.68
 dbt_align_index                ******* 11.5   155.94   155.94  1141.73  1141.73
 dbt_tas_reserve_blocks_templat ******* ****   251.77   251.77  1024.38  1024.38
 dbm_add                        ******* 15.0   833.23   833.23   833.23   833.23
 compute_W_real_space                 1  7.0     4.86     4.86   821.07   821.07
 dbt_tas_mp_comm                ******* 13.2    80.80    80.80   749.95   749.95
 create_and_init_bs_env_for_gw        1  6.0     0.00     0.00   738.64   738.64
 reshape_mm_template            ******* 15.5   450.16   450.16   718.93   718.93
 dbt_tas_merge                  ******* 15.1   441.59   441.59   646.87   646.87
 mp_cart_get                    *******  1.0   640.19   640.19   640.19   640.19
 setup_cells_3c                       1  7.0    15.94    15.94   618.14   618.14
 add_R                          ******* -1.5   443.22   443.22   614.10   614.10
 build_3c_integral_block        1294947  8.0   224.20   224.20   602.20   602.20
 dbt_distribution_new_expert    ******* 12.5    99.94    99.94   486.99   486.99
 compute_Minv_and_Vsqrt               1  8.0     0.40     0.40   453.59   453.59
 dbm_filter                     ******* ****   440.47   440.47   440.47   440.47
 build_2c_coulomb_matrix_kp_sma       2  9.0     0.25     0.25   435.27   435.27
 mp_comm_size                   ******* ****   411.15   411.15   411.15   411.15
 build_2c_coulomb_matrix_kp_sma   23040 10.0   407.05   407.05   407.05   407.05
 abc_contract_xsmm              3621787  9.0   378.00   378.00   378.00   378.00
 dbt_destroy                    ******* -5.3   337.80   337.80   371.86   371.86
 dbt_tas_communicate_buffer     ******* -2.9   359.53   359.53   359.53   359.53
 dbt_tas_reshape_communicate_bu ******* 16.5    67.74    67.74   353.27   353.27
 mp_comm_rank                   ******* ****   302.33   302.33   302.33   302.33
 dbt_reserve_blocks_template    ******* 12.0    31.49    31.49   290.51   290.51
 is_cell_in_index_to_cell       ******* -1.0   286.10   286.10   286.10   286.10
 dbt_create_new                 7126000 12.0    56.13    56.13   262.34   262.34
 mp_sync                        *******  0.1   204.88   204.88   204.88   204.88
 add_rs_to_ikp                  *******  9.6   202.92   202.92   202.92   202.92
 trafo_rs_to_ikp                  29952  8.5     5.98     5.98   191.35   191.35
 dbm_scale                      ******* -7.5   181.28   181.28   181.28   181.28
 dbt_tas_reshape_get_coord      ******* 16.5   172.52   172.52   172.52   172.52
 mp_alltoall_i                  *******  4.9   167.12   167.12   167.12   167.12
 mp_sum_l                       ******* -1.1   138.35   138.35   138.35   138.35
 dbt_tas_reshape_alltoall       ******* 16.5    57.24    57.24   123.30   123.30
 mult_W_with_Minv                    10  8.0     1.09     1.09   121.51   121.51
 add_ikp_to_rs                  *******  9.7   115.83   115.83   115.83   115.83
 dbt_pgrid_create_expert        ******* 13.5    20.23    20.23   105.78   105.78
 add_ikp_to_all_rs                20736  8.3     3.74     3.74   103.96   103.96
 power                            39456  8.2     5.62     5.62    98.97    98.97
 dbt_tas_replicate_communicate_ ******* 15.9    39.38    39.38    95.67    95.67
 diag_complex                     39456  9.2    93.35    93.35    93.35    93.35
 mp_bcast_i                     *******  3.3    86.18    86.18    86.18    86.18
 scf_env_do_scf                       1  3.0     0.01     0.01    75.87    75.87
 scf_env_do_scf_inner_loop           49  4.0     0.01     0.01    75.86    75.86
 mp_max_i                       ******* -1.3    74.71    74.71    74.71    74.71
 dbt_nd_mp_comm                 7125995 12.0    11.80    11.80    73.50    73.50
 compute_3c_integrals                 1  7.0     0.02     0.02    70.74    70.74
 build_3c_integrals                   1  8.0    69.32    69.32    70.63    70.63
 mp_dims_create                 ******* -4.5    64.52    64.52    64.52    64.52
 mp_cart_rank                   ******* -0.1    62.73    62.73    62.73    62.73
 dbt_tas_replicate_alltoall     ******* 15.9    34.88    34.88    57.50    57.50
 qs_scf_new_mos_kp                   49  5.0     0.00     0.00    55.63    55.63
 do_general_diag_kp                  49  6.0     0.18     0.18    55.62    55.62
 dbt_tas_merge_alltoall         ******* 16.1    35.95    35.95    54.22    54.22
 dbt_distribution_destroy       ******* 12.5    40.66    40.66    49.81    49.81
 dbt_buffer_get_index           ******* -3.4    47.29    47.29    47.29    47.29
 dbt_tas_merge_communicate_buff ******* 16.1    19.52    19.52    37.22    37.22
 setup_parallelization_Delta_R        1  7.0     0.00     0.00    34.89    34.89
 compute_n_tensor_ops_Delta_R         1  8.0    15.72    15.72    34.89    34.89
 add_V_L                          46080 10.0    27.81    27.81    27.81    27.81
 G_occ_vir                           41  8.0     0.20     0.20    26.95    26.95
 mp_sum_i                       ******* 16.0    24.89    24.89    24.89    24.89
 rskp_transform                   32568  7.2    22.73    22.73    22.73    22.73
 compute_QP_energies                  1  7.0     0.02     0.02    22.07    22.07
 trafo_to_k_and_nn                15204  8.0     0.10     0.10    21.53    21.53
 fm_trafo_rs_to_ikp               15204  9.0     2.64     2.64    20.19    20.19
 fm_add_ikp_to_rs                 23616  9.0     3.77     3.77    19.40    19.40
 kpoint_density_transform            49  7.0     0.05     0.05    14.44    14.44
 get_Minv_Vtr_Minv_R                  1  8.0     0.10     0.10    13.42    13.42
 heuristic_RI_regularization          1  7.0     0.00     0.00    12.93    12.93
 qs_ks_build_kohn_sham_matrix        52  7.1     0.01     0.01    11.66    11.66
 qs_ks_update_qs_env                 49  5.0     0.00     0.00    11.12    11.12
 rebuild_ks_matrix                   49  6.0     0.00     0.00    11.01    11.01
 copy_dbcsr_to_fm                 89998  7.7     0.40     0.40    10.85    10.85
 transform_dmat                   14112  8.0    10.15    10.15    10.15    10.15
 dbcsr_complete_redistribute     145941  9.2     3.17     3.17     9.64     9.64
 sum_up_and_integrate                52  8.1     0.01     0.01     9.16     9.16
 integrate_v_rspace                  52  9.1     0.02     0.02     9.14     9.14
 -------------------------------------------------------------------------------

 The number of warnings for this run is : 1
 
 -------------------------------------------------------------------------------
  **** **** ******  **  PROGRAM ENDED AT                 2025-03-09 00:35:49.225
 ***** ** ***  *** **   PROGRAM RAN ON                                  n2cn0558
 **    ****   ******    PROGRAM RAN BY                                  metdyn02
 ***** **    ** ** **   PROGRAM PROCESS ID                                103832
  **** **  *******  **  PROGRAM STOPPED IN /scratch/hpc-prf-metdyn/metdyn02_Remi
                                           /05_TMD_new/SNG/1_MoS2_SCAL_test/8c8o
                                           mp
