SIRIUS 7.5.2, git hash: https://api.github.com/repos/electronic-structure/SIRIUS/git/ref/tags/v7.5.2
 DBCSR| CPU Multiplication driver                                           XSMM (U)
 DBCSR| Multrec recursion limit                                              512 (U)
 DBCSR| Multiplication stack size                                           1000 (D)
 DBCSR| Maximum elements for images                                    UNLIMITED (U)
 DBCSR| Multiplicative factor virtual images                                   1 (U)
 DBCSR| Use multiplication densification                                       T (D)
 DBCSR| Multiplication size stacks                                             3 (U)
 DBCSR| Use memory pool for CPU allocation                                     F (U)
 DBCSR| Number of 3D layers                                               SINGLE (U)
 DBCSR| Use MPI memory allocation                                              F (U)
 DBCSR| Use RMA algorithm                                                      F (U)
 DBCSR| Use Communication thread                                               T (U)
 DBCSR| Communication thread load                                             60 (D)
 DBCSR| MPI: My process id                                                     0
 DBCSR| MPI: Number of processes                                              64
 DBCSR| OMP: Current number of threads                                         8
 DBCSR| OMP: Max number of threads                                             8
 DBCSR| Split modifier for TAS multiplication algorithm                  1.0E+00 (U)


  **** **** ******  **  PROGRAM STARTED AT               2025-03-09 10:23:47.447
 ***** ** ***  *** **   PROGRAM STARTED ON                 n2cn0922.ab2021.local
 **    ****   ******    PROGRAM STARTED BY                              metdyn02
 ***** **    ** ** **   PROGRAM PROCESS ID                               2787247
  **** **  *******  **  PROGRAM STARTED IN /scratch/hpc-prf-metdyn/metdyn02_Remi
                                           /05_TMD_new/SNG/1_MoS2_SCAL_test/4N8o
                                           mp

 CP2K| version string:                 CP2K version 2025.1 (Development Version)
 CP2K| source code revision number:                                  git:d2e611a
 CP2K| cp2kflags: omp libint fftw3 libxc libgrpp elpa parallel scalapack mpi_f08
 CP2K|             cosma xsmm plumed2 spglib sirius libvori libbqb libvdwxc hdf5
 CP2K| is freely available from                            https://www.cp2k.org/
 CP2K| Program compiled at                          Thu Mar  6 13:05:54 CET 2025
 CP2K| Program compiled on                                              n2login1
 CP2K| Program compiled for                                                local
 CP2K| Data directory path    /opt/software/pc2/EB-SW/software/CP2K/2024.1-foss-
 CP2K| Input file name                                                    GW.inp

 GLOBAL| Force Environment number                                              1
 GLOBAL| Basis set file name            /scratch/hpc-prf-metdyn/metdyn02_Remi/05
 GLOBAL| Potential file name            /pc2/groups/hpc-prf-metdyn/metdyn02_Remi
 GLOBAL| MM Potential file name                                     MM_POTENTIAL
 GLOBAL| Coordinate file name                                      __STD_INPUT__
 GLOBAL| Method name                                                        CP2K
 GLOBAL| Project name                                                       MoS2
 GLOBAL| Run type                                                         ENERGY
 GLOBAL| FFT library                                                       FFTW3
 GLOBAL| Diagonalization library                                            ELPA
 GLOBAL| DGEMM library                                                      BLAS
 GLOBAL| Minimum number of eigenvectors for ELPA usage                        16
 GLOBAL| Orthonormality check for eigenvectors                          DISABLED
 GLOBAL| Matrix multiplication library                                     COSMA
 GLOBAL| All-to-all communication in single precision                          F
 GLOBAL| FFTs using library dependent lengths                                  F
 GLOBAL| Grid backend                                                       AUTO
 GLOBAL| Global print level                                               MEDIUM
 GLOBAL| MPI I/O enabled                                                       T
 GLOBAL| Total number of message passing processes                            64
 GLOBAL| Number of threads for this process                                    8
 GLOBAL| This output is from process                                           0
 GLOBAL| OpenMP stack size per thread (OMP_STACKSIZE)                    default
 GLOBAL| CPU model name                          AMD EPYC 7763 64-Core Processor
 GLOBAL| CPUID                                                              1002

 MEMORY| system memory details [Kb]
 MEMORY|                        rank 0           min           max       average
 MEMORY| MemTotal            263899264     263899260     263899264     263899263
 MEMORY| MemFree             243997508     243997508     247620044     245694012
 MEMORY| Buffers                152812         43300        186172        113132
 MEMORY| Cached                9797148       6310340       9797148       8300499
 MEMORY| Slab                  2584700       2476244       2584700       2529519
 MEMORY| SReclaimable           618904        531320        618904        577511
 MEMORY| MemLikelyFree       254566372     254566372     254801420     254685154


 *** Fundamental physical constants (SI units) ***

 *** Literature: B. J. Mohr and B. N. Taylor,
 ***             CODATA recommended values of the fundamental physical
 ***             constants: 2006, Web Version 5.1
 ***             http://physics.nist.gov/constants

 Speed of light in vacuum [m/s]                             2.99792458000000E+08
 Magnetic constant or permeability of vacuum [N/A**2]       1.25663706143592E-06
 Electric constant or permittivity of vacuum [F/m]          8.85418781762039E-12
 Planck constant (h) [J*s]                                  6.62606896000000E-34
 Planck constant (h-bar) [J*s]                              1.05457162825177E-34
 Elementary charge [C]                                      1.60217648700000E-19
 Electron mass [kg]                                         9.10938215000000E-31
 Electron g factor [ ]                                     -2.00231930436220E+00
 Proton mass [kg]                                           1.67262163700000E-27
 Fine-structure constant                                    7.29735253760000E-03
 Rydberg constant [1/m]                                     1.09737315685270E+07
 Avogadro constant [1/mol]                                  6.02214179000000E+23
 Boltzmann constant [J/K]                                   1.38065040000000E-23
 Atomic mass unit [kg]                                      1.66053878200000E-27
 Bohr radius [m]                                            5.29177208590000E-11

 *** Conversion factors ***

 [u] -> [a.u.]                                              1.82288848426455E+03
 [Angstrom] -> [Bohr] = [a.u.]                              1.88972613288564E+00
 [a.u.] = [Bohr] -> [Angstrom]                              5.29177208590000E-01
 [a.u.] -> [s]                                              2.41888432650478E-17
 [a.u.] -> [fs]                                             2.41888432650478E-02
 [a.u.] -> [J]                                              4.35974393937059E-18
 [a.u.] -> [N]                                              8.23872205491840E-08
 [a.u.] -> [K]                                              3.15774647902944E+05
 [a.u.] -> [kJ/mol]                                         2.62549961709828E+03
 [a.u.] -> [kcal/mol]                                       6.27509468713739E+02
 [a.u.] -> [Pa]                                             2.94210107994716E+13
 [a.u.] -> [bar]                                            2.94210107994716E+08
 [a.u.] -> [atm]                                            2.90362800883016E+08
 [a.u.] -> [eV]                                             2.72113838565563E+01
 [a.u.] -> [Hz]                                             6.57968392072181E+15
 [a.u.] -> [1/cm] (wave numbers)                            2.19474631370540E+05
 [a.u./Bohr**2] -> [1/cm]                                   5.14048714338585E+03
 

 CELL_TOP| Volume [angstrom^3]:                                       131.694613
 CELL_TOP| Vector a [angstrom     3.184     0.000     0.000   |a| =     3.184000
 CELL_TOP| Vector b [angstrom    -1.592     2.757     0.000   |b| =     3.184000
 CELL_TOP| Vector c [angstrom     0.000     0.000    15.000   |c| =    15.000000
 CELL_TOP| Angle (b,c), alpha [degree]:                                90.000000
 CELL_TOP| Angle (a,c), beta  [degree]:                                90.000000
 CELL_TOP| Angle (a,b), gamma [degree]:                               120.000000
 CELL_TOP| Numerically orthorhombic:                                          NO
 CELL_TOP| Periodicity                                                        XY

 GENERATE|  Preliminary Number of Bonds generated:                             0
 GENERATE|  Achieved consistency in connectivity generation.

 CELL| Volume [angstrom^3]:                                           131.694613
 CELL| Vector a [angstrom]:       3.184     0.000     0.000   |a| =     3.184000
 CELL| Vector b [angstrom]:      -1.592     2.757     0.000   |b| =     3.184000
 CELL| Vector c [angstrom]:       0.000     0.000    15.000   |c| =    15.000000
 CELL| Angle (b,c), alpha [degree]:                                    90.000000
 CELL| Angle (a,c), beta  [degree]:                                    90.000000
 CELL| Angle (a,b), gamma [degree]:                                   120.000000
 CELL| Numerically orthorhombic:                                              NO
 CELL| Periodicity                                                            XY

 CELL_REF| Volume [angstrom^3]:                                       131.694613
 CELL_REF| Vector a [angstrom     3.184     0.000     0.000   |a| =     3.184000
 CELL_REF| Vector b [angstrom    -1.592     2.757     0.000   |b| =     3.184000
 CELL_REF| Vector c [angstrom     0.000     0.000    15.000   |c| =    15.000000
 CELL_REF| Angle (b,c), alpha [degree]:                                90.000000
 CELL_REF| Angle (a,c), beta  [degree]:                                90.000000
 CELL_REF| Angle (a,b), gamma [degree]:                               120.000000
 CELL_REF| Numerically orthorhombic:                                          NO
 CELL_REF| Periodicity                                                        XY

 *******************************************************************************
                                    Kpoints
 *******************************************************************************
 BRILLOUIN| K-point scheme                                        Monkhorst-Pack
 BRILLOUIN| K-Point grid                                            24   24    1
 BRILLOUIN| Accuracy in Symmetry determination                      0.100000E-05
 BRILLOUIN| K-Point point group symmetrization                               OFF
 BRILLOUIN| Wavefunction type                                            COMPLEX
 BRILLOUIN| List of Kpoints [2 Pi/Bohr]                                      288
 BRILLOUIN| Number           Weight            X              Y              Z
 BRILLOUIN|     1           0.00347       -0.47917       -0.47917        0.00000
 BRILLOUIN|     2           0.00347       -0.47917       -0.43750        0.00000
 BRILLOUIN|     3           0.00347       -0.47917       -0.39583        0.00000
 BRILLOUIN|     4           0.00347       -0.47917       -0.35417        0.00000
 BRILLOUIN|     5           0.00347       -0.47917       -0.31250        0.00000
 BRILLOUIN|     6           0.00347       -0.47917       -0.27083        0.00000
 BRILLOUIN|     7           0.00347       -0.47917       -0.22917        0.00000
 BRILLOUIN|     8           0.00347       -0.47917       -0.18750        0.00000
 BRILLOUIN|     9           0.00347       -0.47917       -0.14583        0.00000
 BRILLOUIN|    10           0.00347       -0.47917       -0.10417        0.00000
 BRILLOUIN|    11           0.00347       -0.47917       -0.06250        0.00000
 BRILLOUIN|    12           0.00347       -0.47917       -0.02083        0.00000
 BRILLOUIN|    13           0.00347       -0.47917        0.02083        0.00000
 BRILLOUIN|    14           0.00347       -0.47917        0.06250        0.00000
 BRILLOUIN|    15           0.00347       -0.47917        0.10417        0.00000
 BRILLOUIN|    16           0.00347       -0.47917        0.14583        0.00000
 BRILLOUIN|    17           0.00347       -0.47917        0.18750        0.00000
 BRILLOUIN|    18           0.00347       -0.47917        0.22917        0.00000
 BRILLOUIN|    19           0.00347       -0.47917        0.27083        0.00000
 BRILLOUIN|    20           0.00347       -0.47917        0.31250        0.00000
 BRILLOUIN|    21           0.00347       -0.47917        0.35417        0.00000
 BRILLOUIN|    22           0.00347       -0.47917        0.39583        0.00000
 BRILLOUIN|    23           0.00347       -0.47917        0.43750        0.00000
 BRILLOUIN|    24           0.00347       -0.47917        0.47917        0.00000
 BRILLOUIN|    25           0.00347       -0.43750       -0.47917        0.00000
 BRILLOUIN|    26           0.00347       -0.43750       -0.43750        0.00000
 BRILLOUIN|    27           0.00347       -0.43750       -0.39583        0.00000
 BRILLOUIN|    28           0.00347       -0.43750       -0.35417        0.00000
 BRILLOUIN|    29           0.00347       -0.43750       -0.31250        0.00000
 BRILLOUIN|    30           0.00347       -0.43750       -0.27083        0.00000
 BRILLOUIN|    31           0.00347       -0.43750       -0.22917        0.00000
 BRILLOUIN|    32           0.00347       -0.43750       -0.18750        0.00000
 BRILLOUIN|    33           0.00347       -0.43750       -0.14583        0.00000
 BRILLOUIN|    34           0.00347       -0.43750       -0.10417        0.00000
 BRILLOUIN|    35           0.00347       -0.43750       -0.06250        0.00000
 BRILLOUIN|    36           0.00347       -0.43750       -0.02083        0.00000
 BRILLOUIN|    37           0.00347       -0.43750        0.02083        0.00000
 BRILLOUIN|    38           0.00347       -0.43750        0.06250        0.00000
 BRILLOUIN|    39           0.00347       -0.43750        0.10417        0.00000
 BRILLOUIN|    40           0.00347       -0.43750        0.14583        0.00000
 BRILLOUIN|    41           0.00347       -0.43750        0.18750        0.00000
 BRILLOUIN|    42           0.00347       -0.43750        0.22917        0.00000
 BRILLOUIN|    43           0.00347       -0.43750        0.27083        0.00000
 BRILLOUIN|    44           0.00347       -0.43750        0.31250        0.00000
 BRILLOUIN|    45           0.00347       -0.43750        0.35417        0.00000
 BRILLOUIN|    46           0.00347       -0.43750        0.39583        0.00000
 BRILLOUIN|    47           0.00347       -0.43750        0.43750        0.00000
 BRILLOUIN|    48           0.00347       -0.43750        0.47917        0.00000
 BRILLOUIN|    49           0.00347       -0.39583       -0.47917        0.00000
 BRILLOUIN|    50           0.00347       -0.39583       -0.43750        0.00000
 BRILLOUIN|    51           0.00347       -0.39583       -0.39583        0.00000
 BRILLOUIN|    52           0.00347       -0.39583       -0.35417        0.00000
 BRILLOUIN|    53           0.00347       -0.39583       -0.31250        0.00000
 BRILLOUIN|    54           0.00347       -0.39583       -0.27083        0.00000
 BRILLOUIN|    55           0.00347       -0.39583       -0.22917        0.00000
 BRILLOUIN|    56           0.00347       -0.39583       -0.18750        0.00000
 BRILLOUIN|    57           0.00347       -0.39583       -0.14583        0.00000
 BRILLOUIN|    58           0.00347       -0.39583       -0.10417        0.00000
 BRILLOUIN|    59           0.00347       -0.39583       -0.06250        0.00000
 BRILLOUIN|    60           0.00347       -0.39583       -0.02083        0.00000
 BRILLOUIN|    61           0.00347       -0.39583        0.02083        0.00000
 BRILLOUIN|    62           0.00347       -0.39583        0.06250        0.00000
 BRILLOUIN|    63           0.00347       -0.39583        0.10417        0.00000
 BRILLOUIN|    64           0.00347       -0.39583        0.14583        0.00000
 BRILLOUIN|    65           0.00347       -0.39583        0.18750        0.00000
 BRILLOUIN|    66           0.00347       -0.39583        0.22917        0.00000
 BRILLOUIN|    67           0.00347       -0.39583        0.27083        0.00000
 BRILLOUIN|    68           0.00347       -0.39583        0.31250        0.00000
 BRILLOUIN|    69           0.00347       -0.39583        0.35417        0.00000
 BRILLOUIN|    70           0.00347       -0.39583        0.39583        0.00000
 BRILLOUIN|    71           0.00347       -0.39583        0.43750        0.00000
 BRILLOUIN|    72           0.00347       -0.39583        0.47917        0.00000
 BRILLOUIN|    73           0.00347       -0.35417       -0.47917        0.00000
 BRILLOUIN|    74           0.00347       -0.35417       -0.43750        0.00000
 BRILLOUIN|    75           0.00347       -0.35417       -0.39583        0.00000
 BRILLOUIN|    76           0.00347       -0.35417       -0.35417        0.00000
 BRILLOUIN|    77           0.00347       -0.35417       -0.31250        0.00000
 BRILLOUIN|    78           0.00347       -0.35417       -0.27083        0.00000
 BRILLOUIN|    79           0.00347       -0.35417       -0.22917        0.00000
 BRILLOUIN|    80           0.00347       -0.35417       -0.18750        0.00000
 BRILLOUIN|    81           0.00347       -0.35417       -0.14583        0.00000
 BRILLOUIN|    82           0.00347       -0.35417       -0.10417        0.00000
 BRILLOUIN|    83           0.00347       -0.35417       -0.06250        0.00000
 BRILLOUIN|    84           0.00347       -0.35417       -0.02083        0.00000
 BRILLOUIN|    85           0.00347       -0.35417        0.02083        0.00000
 BRILLOUIN|    86           0.00347       -0.35417        0.06250        0.00000
 BRILLOUIN|    87           0.00347       -0.35417        0.10417        0.00000
 BRILLOUIN|    88           0.00347       -0.35417        0.14583        0.00000
 BRILLOUIN|    89           0.00347       -0.35417        0.18750        0.00000
 BRILLOUIN|    90           0.00347       -0.35417        0.22917        0.00000
 BRILLOUIN|    91           0.00347       -0.35417        0.27083        0.00000
 BRILLOUIN|    92           0.00347       -0.35417        0.31250        0.00000
 BRILLOUIN|    93           0.00347       -0.35417        0.35417        0.00000
 BRILLOUIN|    94           0.00347       -0.35417        0.39583        0.00000
 BRILLOUIN|    95           0.00347       -0.35417        0.43750        0.00000
 BRILLOUIN|    96           0.00347       -0.35417        0.47917        0.00000
 BRILLOUIN|    97           0.00347       -0.31250       -0.47917        0.00000
 BRILLOUIN|    98           0.00347       -0.31250       -0.43750        0.00000
 BRILLOUIN|    99           0.00347       -0.31250       -0.39583        0.00000
 BRILLOUIN|   100           0.00347       -0.31250       -0.35417        0.00000
 BRILLOUIN|   101           0.00347       -0.31250       -0.31250        0.00000
 BRILLOUIN|   102           0.00347       -0.31250       -0.27083        0.00000
 BRILLOUIN|   103           0.00347       -0.31250       -0.22917        0.00000
 BRILLOUIN|   104           0.00347       -0.31250       -0.18750        0.00000
 BRILLOUIN|   105           0.00347       -0.31250       -0.14583        0.00000
 BRILLOUIN|   106           0.00347       -0.31250       -0.10417        0.00000
 BRILLOUIN|   107           0.00347       -0.31250       -0.06250        0.00000
 BRILLOUIN|   108           0.00347       -0.31250       -0.02083        0.00000
 BRILLOUIN|   109           0.00347       -0.31250        0.02083        0.00000
 BRILLOUIN|   110           0.00347       -0.31250        0.06250        0.00000
 BRILLOUIN|   111           0.00347       -0.31250        0.10417        0.00000
 BRILLOUIN|   112           0.00347       -0.31250        0.14583        0.00000
 BRILLOUIN|   113           0.00347       -0.31250        0.18750        0.00000
 BRILLOUIN|   114           0.00347       -0.31250        0.22917        0.00000
 BRILLOUIN|   115           0.00347       -0.31250        0.27083        0.00000
 BRILLOUIN|   116           0.00347       -0.31250        0.31250        0.00000
 BRILLOUIN|   117           0.00347       -0.31250        0.35417        0.00000
 BRILLOUIN|   118           0.00347       -0.31250        0.39583        0.00000
 BRILLOUIN|   119           0.00347       -0.31250        0.43750        0.00000
 BRILLOUIN|   120           0.00347       -0.31250        0.47917        0.00000
 BRILLOUIN|   121           0.00347       -0.27083       -0.47917        0.00000
 BRILLOUIN|   122           0.00347       -0.27083       -0.43750        0.00000
 BRILLOUIN|   123           0.00347       -0.27083       -0.39583        0.00000
 BRILLOUIN|   124           0.00347       -0.27083       -0.35417        0.00000
 BRILLOUIN|   125           0.00347       -0.27083       -0.31250        0.00000
 BRILLOUIN|   126           0.00347       -0.27083       -0.27083        0.00000
 BRILLOUIN|   127           0.00347       -0.27083       -0.22917        0.00000
 BRILLOUIN|   128           0.00347       -0.27083       -0.18750        0.00000
 BRILLOUIN|   129           0.00347       -0.27083       -0.14583        0.00000
 BRILLOUIN|   130           0.00347       -0.27083       -0.10417        0.00000
 BRILLOUIN|   131           0.00347       -0.27083       -0.06250        0.00000
 BRILLOUIN|   132           0.00347       -0.27083       -0.02083        0.00000
 BRILLOUIN|   133           0.00347       -0.27083        0.02083        0.00000
 BRILLOUIN|   134           0.00347       -0.27083        0.06250        0.00000
 BRILLOUIN|   135           0.00347       -0.27083        0.10417        0.00000
 BRILLOUIN|   136           0.00347       -0.27083        0.14583        0.00000
 BRILLOUIN|   137           0.00347       -0.27083        0.18750        0.00000
 BRILLOUIN|   138           0.00347       -0.27083        0.22917        0.00000
 BRILLOUIN|   139           0.00347       -0.27083        0.27083        0.00000
 BRILLOUIN|   140           0.00347       -0.27083        0.31250        0.00000
 BRILLOUIN|   141           0.00347       -0.27083        0.35417        0.00000
 BRILLOUIN|   142           0.00347       -0.27083        0.39583        0.00000
 BRILLOUIN|   143           0.00347       -0.27083        0.43750        0.00000
 BRILLOUIN|   144           0.00347       -0.27083        0.47917        0.00000
 BRILLOUIN|   145           0.00347       -0.22917       -0.47917        0.00000
 BRILLOUIN|   146           0.00347       -0.22917       -0.43750        0.00000
 BRILLOUIN|   147           0.00347       -0.22917       -0.39583        0.00000
 BRILLOUIN|   148           0.00347       -0.22917       -0.35417        0.00000
 BRILLOUIN|   149           0.00347       -0.22917       -0.31250        0.00000
 BRILLOUIN|   150           0.00347       -0.22917       -0.27083        0.00000
 BRILLOUIN|   151           0.00347       -0.22917       -0.22917        0.00000
 BRILLOUIN|   152           0.00347       -0.22917       -0.18750        0.00000
 BRILLOUIN|   153           0.00347       -0.22917       -0.14583        0.00000
 BRILLOUIN|   154           0.00347       -0.22917       -0.10417        0.00000
 BRILLOUIN|   155           0.00347       -0.22917       -0.06250        0.00000
 BRILLOUIN|   156           0.00347       -0.22917       -0.02083        0.00000
 BRILLOUIN|   157           0.00347       -0.22917        0.02083        0.00000
 BRILLOUIN|   158           0.00347       -0.22917        0.06250        0.00000
 BRILLOUIN|   159           0.00347       -0.22917        0.10417        0.00000
 BRILLOUIN|   160           0.00347       -0.22917        0.14583        0.00000
 BRILLOUIN|   161           0.00347       -0.22917        0.18750        0.00000
 BRILLOUIN|   162           0.00347       -0.22917        0.22917        0.00000
 BRILLOUIN|   163           0.00347       -0.22917        0.27083        0.00000
 BRILLOUIN|   164           0.00347       -0.22917        0.31250        0.00000
 BRILLOUIN|   165           0.00347       -0.22917        0.35417        0.00000
 BRILLOUIN|   166           0.00347       -0.22917        0.39583        0.00000
 BRILLOUIN|   167           0.00347       -0.22917        0.43750        0.00000
 BRILLOUIN|   168           0.00347       -0.22917        0.47917        0.00000
 BRILLOUIN|   169           0.00347       -0.18750       -0.47917        0.00000
 BRILLOUIN|   170           0.00347       -0.18750       -0.43750        0.00000
 BRILLOUIN|   171           0.00347       -0.18750       -0.39583        0.00000
 BRILLOUIN|   172           0.00347       -0.18750       -0.35417        0.00000
 BRILLOUIN|   173           0.00347       -0.18750       -0.31250        0.00000
 BRILLOUIN|   174           0.00347       -0.18750       -0.27083        0.00000
 BRILLOUIN|   175           0.00347       -0.18750       -0.22917        0.00000
 BRILLOUIN|   176           0.00347       -0.18750       -0.18750        0.00000
 BRILLOUIN|   177           0.00347       -0.18750       -0.14583        0.00000
 BRILLOUIN|   178           0.00347       -0.18750       -0.10417        0.00000
 BRILLOUIN|   179           0.00347       -0.18750       -0.06250        0.00000
 BRILLOUIN|   180           0.00347       -0.18750       -0.02083        0.00000
 BRILLOUIN|   181           0.00347       -0.18750        0.02083        0.00000
 BRILLOUIN|   182           0.00347       -0.18750        0.06250        0.00000
 BRILLOUIN|   183           0.00347       -0.18750        0.10417        0.00000
 BRILLOUIN|   184           0.00347       -0.18750        0.14583        0.00000
 BRILLOUIN|   185           0.00347       -0.18750        0.18750        0.00000
 BRILLOUIN|   186           0.00347       -0.18750        0.22917        0.00000
 BRILLOUIN|   187           0.00347       -0.18750        0.27083        0.00000
 BRILLOUIN|   188           0.00347       -0.18750        0.31250        0.00000
 BRILLOUIN|   189           0.00347       -0.18750        0.35417        0.00000
 BRILLOUIN|   190           0.00347       -0.18750        0.39583        0.00000
 BRILLOUIN|   191           0.00347       -0.18750        0.43750        0.00000
 BRILLOUIN|   192           0.00347       -0.18750        0.47917        0.00000
 BRILLOUIN|   193           0.00347       -0.14583       -0.47917        0.00000
 BRILLOUIN|   194           0.00347       -0.14583       -0.43750        0.00000
 BRILLOUIN|   195           0.00347       -0.14583       -0.39583        0.00000
 BRILLOUIN|   196           0.00347       -0.14583       -0.35417        0.00000
 BRILLOUIN|   197           0.00347       -0.14583       -0.31250        0.00000
 BRILLOUIN|   198           0.00347       -0.14583       -0.27083        0.00000
 BRILLOUIN|   199           0.00347       -0.14583       -0.22917        0.00000
 BRILLOUIN|   200           0.00347       -0.14583       -0.18750        0.00000
 BRILLOUIN|   201           0.00347       -0.14583       -0.14583        0.00000
 BRILLOUIN|   202           0.00347       -0.14583       -0.10417        0.00000
 BRILLOUIN|   203           0.00347       -0.14583       -0.06250        0.00000
 BRILLOUIN|   204           0.00347       -0.14583       -0.02083        0.00000
 BRILLOUIN|   205           0.00347       -0.14583        0.02083        0.00000
 BRILLOUIN|   206           0.00347       -0.14583        0.06250        0.00000
 BRILLOUIN|   207           0.00347       -0.14583        0.10417        0.00000
 BRILLOUIN|   208           0.00347       -0.14583        0.14583        0.00000
 BRILLOUIN|   209           0.00347       -0.14583        0.18750        0.00000
 BRILLOUIN|   210           0.00347       -0.14583        0.22917        0.00000
 BRILLOUIN|   211           0.00347       -0.14583        0.27083        0.00000
 BRILLOUIN|   212           0.00347       -0.14583        0.31250        0.00000
 BRILLOUIN|   213           0.00347       -0.14583        0.35417        0.00000
 BRILLOUIN|   214           0.00347       -0.14583        0.39583        0.00000
 BRILLOUIN|   215           0.00347       -0.14583        0.43750        0.00000
 BRILLOUIN|   216           0.00347       -0.14583        0.47917        0.00000
 BRILLOUIN|   217           0.00347       -0.10417       -0.47917        0.00000
 BRILLOUIN|   218           0.00347       -0.10417       -0.43750        0.00000
 BRILLOUIN|   219           0.00347       -0.10417       -0.39583        0.00000
 BRILLOUIN|   220           0.00347       -0.10417       -0.35417        0.00000
 BRILLOUIN|   221           0.00347       -0.10417       -0.31250        0.00000
 BRILLOUIN|   222           0.00347       -0.10417       -0.27083        0.00000
 BRILLOUIN|   223           0.00347       -0.10417       -0.22917        0.00000
 BRILLOUIN|   224           0.00347       -0.10417       -0.18750        0.00000
 BRILLOUIN|   225           0.00347       -0.10417       -0.14583        0.00000
 BRILLOUIN|   226           0.00347       -0.10417       -0.10417        0.00000
 BRILLOUIN|   227           0.00347       -0.10417       -0.06250        0.00000
 BRILLOUIN|   228           0.00347       -0.10417       -0.02083        0.00000
 BRILLOUIN|   229           0.00347       -0.10417        0.02083        0.00000
 BRILLOUIN|   230           0.00347       -0.10417        0.06250        0.00000
 BRILLOUIN|   231           0.00347       -0.10417        0.10417        0.00000
 BRILLOUIN|   232           0.00347       -0.10417        0.14583        0.00000
 BRILLOUIN|   233           0.00347       -0.10417        0.18750        0.00000
 BRILLOUIN|   234           0.00347       -0.10417        0.22917        0.00000
 BRILLOUIN|   235           0.00347       -0.10417        0.27083        0.00000
 BRILLOUIN|   236           0.00347       -0.10417        0.31250        0.00000
 BRILLOUIN|   237           0.00347       -0.10417        0.35417        0.00000
 BRILLOUIN|   238           0.00347       -0.10417        0.39583        0.00000
 BRILLOUIN|   239           0.00347       -0.10417        0.43750        0.00000
 BRILLOUIN|   240           0.00347       -0.10417        0.47917        0.00000
 BRILLOUIN|   241           0.00347       -0.06250       -0.47917        0.00000
 BRILLOUIN|   242           0.00347       -0.06250       -0.43750        0.00000
 BRILLOUIN|   243           0.00347       -0.06250       -0.39583        0.00000
 BRILLOUIN|   244           0.00347       -0.06250       -0.35417        0.00000
 BRILLOUIN|   245           0.00347       -0.06250       -0.31250        0.00000
 BRILLOUIN|   246           0.00347       -0.06250       -0.27083        0.00000
 BRILLOUIN|   247           0.00347       -0.06250       -0.22917        0.00000
 BRILLOUIN|   248           0.00347       -0.06250       -0.18750        0.00000
 BRILLOUIN|   249           0.00347       -0.06250       -0.14583        0.00000
 BRILLOUIN|   250           0.00347       -0.06250       -0.10417        0.00000
 BRILLOUIN|   251           0.00347       -0.06250       -0.06250        0.00000
 BRILLOUIN|   252           0.00347       -0.06250       -0.02083        0.00000
 BRILLOUIN|   253           0.00347       -0.06250        0.02083        0.00000
 BRILLOUIN|   254           0.00347       -0.06250        0.06250        0.00000
 BRILLOUIN|   255           0.00347       -0.06250        0.10417        0.00000
 BRILLOUIN|   256           0.00347       -0.06250        0.14583        0.00000
 BRILLOUIN|   257           0.00347       -0.06250        0.18750        0.00000
 BRILLOUIN|   258           0.00347       -0.06250        0.22917        0.00000
 BRILLOUIN|   259           0.00347       -0.06250        0.27083        0.00000
 BRILLOUIN|   260           0.00347       -0.06250        0.31250        0.00000
 BRILLOUIN|   261           0.00347       -0.06250        0.35417        0.00000
 BRILLOUIN|   262           0.00347       -0.06250        0.39583        0.00000
 BRILLOUIN|   263           0.00347       -0.06250        0.43750        0.00000
 BRILLOUIN|   264           0.00347       -0.06250        0.47917        0.00000
 BRILLOUIN|   265           0.00347       -0.02083       -0.47917        0.00000
 BRILLOUIN|   266           0.00347       -0.02083       -0.43750        0.00000
 BRILLOUIN|   267           0.00347       -0.02083       -0.39583        0.00000
 BRILLOUIN|   268           0.00347       -0.02083       -0.35417        0.00000
 BRILLOUIN|   269           0.00347       -0.02083       -0.31250        0.00000
 BRILLOUIN|   270           0.00347       -0.02083       -0.27083        0.00000
 BRILLOUIN|   271           0.00347       -0.02083       -0.22917        0.00000
 BRILLOUIN|   272           0.00347       -0.02083       -0.18750        0.00000
 BRILLOUIN|   273           0.00347       -0.02083       -0.14583        0.00000
 BRILLOUIN|   274           0.00347       -0.02083       -0.10417        0.00000
 BRILLOUIN|   275           0.00347       -0.02083       -0.06250        0.00000
 BRILLOUIN|   276           0.00347       -0.02083       -0.02083        0.00000
 BRILLOUIN|   277           0.00347       -0.02083        0.02083        0.00000
 BRILLOUIN|   278           0.00347       -0.02083        0.06250        0.00000
 BRILLOUIN|   279           0.00347       -0.02083        0.10417        0.00000
 BRILLOUIN|   280           0.00347       -0.02083        0.14583        0.00000
 BRILLOUIN|   281           0.00347       -0.02083        0.18750        0.00000
 BRILLOUIN|   282           0.00347       -0.02083        0.22917        0.00000
 BRILLOUIN|   283           0.00347       -0.02083        0.27083        0.00000
 BRILLOUIN|   284           0.00347       -0.02083        0.31250        0.00000
 BRILLOUIN|   285           0.00347       -0.02083        0.35417        0.00000
 BRILLOUIN|   286           0.00347       -0.02083        0.39583        0.00000
 BRILLOUIN|   287           0.00347       -0.02083        0.43750        0.00000
 BRILLOUIN|   288           0.00347       -0.02083        0.47917        0.00000
 *******************************************************************************

 *******************************************************************************
 *******************************************************************************
 **                                                                           **
 **     #####                         ##              ##                      **
 **    ##   ##            ##          ##              ##                      **
 **   ##     ##                       ##            ######                    **
 **   ##     ##  ##   ##  ##   #####  ##  ##   ####   ##    #####    #####    **
 **   ##     ##  ##   ##  ##  ##      ## ##   ##      ##   ##   ##  ##   ##   **
 **   ##  ## ##  ##   ##  ##  ##      ####     ###    ##   ######   ######    **
 **    ##  ###   ##   ##  ##  ##      ## ##      ##   ##   ##       ##        **
 **     #######   #####   ##   #####  ##  ##  ####    ##    #####   ##        **
 **           ##                                                    ##        **
 **                                                                           **
 **                                                ... make the atoms dance   **
 **                                                                           **
 **            Copyright (C) by CP2K developers group (2000-2025)             **
 **                      J. Chem. Phys. 152, 194103 (2020)                    **
 **                                                                           **
 *******************************************************************************

 DFT| Spin restricted Kohn-Sham (RKS) calculation                            RKS
 DFT| Multiplicity                                                             1
 DFT| Number of spin states                                                    1
 DFT| Charge                                                                   0
 DFT| Self-interaction correction (SIC)                                       NO
 DFT| Cutoffs: density                                              1.000000E-10
 DFT|          gradient                                             1.000000E-10
 DFT|          tau                                                  1.000000E-10
 DFT|          cutoff_smoothing_range                               0.000000E+00
 DFT| XC density smoothing                                                  NONE
 DFT| XC derivatives                                                          PW

 FUNCTIONAL| PBE:
 FUNCTIONAL| J.P.Perdew, K.Burke, M.Ernzerhof, Phys. Rev. Letter, vol. 77, n 18,
 FUNCTIONAL|  pp. 3865-3868, (1996) {spin unpolarized}                          


 QS| Method:                                                                GAPW
 QS| Density plane wave grid type                        NON-SPHERICAL FULLSPACE
 QS| Number of grid levels:                                                    4
 QS| Density cutoff [a.u.]:                                                250.0
 QS| Multi grid cutoff [a.u.]: 1) grid level                               250.0
 QS|                           2) grid level                                83.3
 QS|                           3) grid level                                27.8
 QS|                           4) grid level                                 9.3
 QS| Grid level progression factor:                                          3.0
 QS| Relative density cutoff [a.u.]:                                        50.0
 QS| Interaction thresholds: eps_pgf_orb:                                1.0E-12
 QS|                         eps_filter_matrix:                          0.0E+00
 QS|                         eps_core_charge:                            1.0E-14
 QS|                         eps_rho_gspace:                             1.0E-12
 QS|                         eps_rho_rspace:                             1.0E-12
 QS|                         eps_gvg_rspace:                             1.0E-06
 QS|                         eps_ppl:                                    1.0E-02
 QS|                         eps_ppnl:                                   1.0E-08
 QS| GAPW|      One center basis from orbital basis primitives
 QS| GAPW|                   eps_fit:                                    1.0E-04
 QS| GAPW|                   eps_iso:                                    1.0E-12
 QS| GAPW|                   eps_svd:                                    1.0E-08
 QS| GAPW|                   eps_cpc:                                    1.0E-12
 QS| GAPW|   atom-r-grid: quadrature:                                     GC_LOG
 QS| GAPW|      atom-s-grid:  max l :                                          6
 QS| GAPW|      max_l_rho0 :                                                   2
 QS| GAPW|      At least one kind is NOT PAW, i.e. it has only soft AO 
 QS| GAPW|      The NOT PAW atoms are treated fully GPW


 ATOMIC KIND INFORMATION

  1. Atomic kind: Mo                                    Number of atoms:       1

     Orbital Basis Set                                        aug-SZV-MOLOPT-GTH

       Number of orbital shell sets:                                           1
       Number of orbital shells:                                               8
       Number of primitive Cartesian functions:                                7
       Number of Cartesian basis functions:                                   31
       Number of spherical basis functions:                                   26
       Norm type:                                                              2

       Normalised Cartesian orbitals:

                        Set   Shell   Orbital            Exponent    Coefficient

                          1       1    2s                0.052949       0.001981
                                                         0.083802      -0.010762
                                                         0.189498       0.027372
                                                         0.439257       0.078864
                                                         0.894040       0.689563
                                                         1.999996       0.475974
                                                         2.540273      -1.291314

                          1       2    3s                0.052949      -0.030340
                                                         0.083802      -0.064725
                                                         0.189498      -0.028997
                                                         0.439257       0.016258
                                                         0.894040       0.125661
                                                         1.999996      -0.186721
                                                         2.540273       0.199824

                          1       3    4s                0.052949       0.000293
                                                         0.083802       0.017891
                                                         0.189498       0.174119
                                                         0.439257       0.000338
                                                         0.894040       0.000124
                                                         1.999996       0.000000
                                                         2.540273       0.000000

                          1       4    3px               0.052949       0.000064
                                                         0.083802      -0.000118
                                                         0.189498      -0.006020
                                                         0.439257      -0.180857
                                                         0.894040      -0.605502
                                                         1.999996      -2.548091
                                                         2.540273       2.808966
                          1       4    3py               0.052949       0.000064
                                                         0.083802      -0.000118
                                                         0.189498      -0.006020
                                                         0.439257      -0.180857
                                                         0.894040      -0.605502
                                                         1.999996      -2.548091
                                                         2.540273       2.808966
                          1       4    3pz               0.052949       0.000064
                                                         0.083802      -0.000118
                                                         0.189498      -0.006020
                                                         0.439257      -0.180857
                                                         0.894040      -0.605502
                                                         1.999996      -2.548091
                                                         2.540273       2.808966

                          1       5    4px               0.052949       0.016064
                                                         0.083802       0.029646
                                                         0.189498       0.043571
                                                         0.439257      -0.099073
                                                         0.894040       0.009322
                                                         1.999996       0.000000
                                                         2.540273       0.000000
                          1       5    4py               0.052949       0.016064
                                                         0.083802       0.029646
                                                         0.189498       0.043571
                                                         0.439257      -0.099073
                                                         0.894040       0.009322
                                                         1.999996       0.000000
                                                         2.540273       0.000000
                          1       5    4pz               0.052949       0.016064
                                                         0.083802       0.029646
                                                         0.189498       0.043571
                                                         0.439257      -0.099073
                                                         0.894040       0.009322
                                                         1.999996       0.000000
                                                         2.540273       0.000000

                          1       6    4dx2              0.052949       0.000173
                                                         0.083802       0.001355
                                                         0.189498       0.023725
                                                         0.439257       0.160904
                                                         0.894040       0.370223
                                                         1.999996       2.115795
                                                         2.540273      -1.655651
                          1       6    4dxy              0.052949       0.000300
                                                         0.083802       0.002348
                                                         0.189498       0.041094
                                                         0.439257       0.278694
                                                         0.894040       0.641245
                                                         1.999996       3.664664
                                                         2.540273      -2.867672
                          1       6    4dxz              0.052949       0.000300
                                                         0.083802       0.002348
                                                         0.189498       0.041094
                                                         0.439257       0.278694
                                                         0.894040       0.641245
                                                         1.999996       3.664664
                                                         2.540273      -2.867672
                          1       6    4dy2              0.052949       0.000173
                                                         0.083802       0.001355
                                                         0.189498       0.023725
                                                         0.439257       0.160904
                                                         0.894040       0.370223
                                                         1.999996       2.115795
                                                         2.540273      -1.655651
                          1       6    4dyz              0.052949       0.000300
                                                         0.083802       0.002348
                                                         0.189498       0.041094
                                                         0.439257       0.278694
                                                         0.894040       0.641245
                                                         1.999996       3.664664
                                                         2.540273      -2.867672
                          1       6    4dz2              0.052949       0.000173
                                                         0.083802       0.001355
                                                         0.189498       0.023725
                                                         0.439257       0.160904
                                                         0.894040       0.370223
                                                         1.999996       2.115795
                                                         2.540273      -1.655651

                          1       7    5dx2              0.052949       0.000036
                                                         0.083802       0.003451
                                                         0.189498       0.050397
                                                         0.439257       0.185190
                                                         0.894040      -0.191024
                                                         1.999996       0.000000
                                                         2.540273       0.000000
                          1       7    5dxy              0.052949       0.000062
                                                         0.083802       0.005978
                                                         0.189498       0.087290
                                                         0.439257       0.320758
                                                         0.894040      -0.330863
                                                         1.999996       0.000000
                                                         2.540273       0.000000
                          1       7    5dxz              0.052949       0.000062
                                                         0.083802       0.005978
                                                         0.189498       0.087290
                                                         0.439257       0.320758
                                                         0.894040      -0.330863
                                                         1.999996       0.000000
                                                         2.540273       0.000000
                          1       7    5dy2              0.052949       0.000036
                                                         0.083802       0.003451
                                                         0.189498       0.050397
                                                         0.439257       0.185190
                                                         0.894040      -0.191024
                                                         1.999996       0.000000
                                                         2.540273       0.000000
                          1       7    5dyz              0.052949       0.000062
                                                         0.083802       0.005978
                                                         0.189498       0.087290
                                                         0.439257       0.320758
                                                         0.894040      -0.330863
                                                         1.999996       0.000000
                                                         2.540273       0.000000
                          1       7    5dz2              0.052949       0.000036
                                                         0.083802       0.003451
                                                         0.189498       0.050397
                                                         0.439257       0.185190
                                                         0.894040      -0.191024
                                                         1.999996       0.000000
                                                         2.540273       0.000000

                          1       8    5fx3              0.052949      -0.000274
                                                         0.083802       0.000760
                                                         0.189498       0.005893
                                                         0.439257       0.027686
                                                         0.894040       0.936958
                                                         1.999996       0.000000
                                                         2.540273       0.000000
                          1       8    5fx2y             0.052949      -0.000612
                                                         0.083802       0.001698
                                                         0.189498       0.013177
                                                         0.439257       0.061909
                                                         0.894040       2.095101
                                                         1.999996       0.000000
                                                         2.540273       0.000000
                          1       8    5fx2z             0.052949      -0.000612
                                                         0.083802       0.001698
                                                         0.189498       0.013177
                                                         0.439257       0.061909
                                                         0.894040       2.095101
                                                         1.999996       0.000000
                                                         2.540273       0.000000
                          1       8    5fxy2             0.052949      -0.000612
                                                         0.083802       0.001698
                                                         0.189498       0.013177
                                                         0.439257       0.061909
                                                         0.894040       2.095101
                                                         1.999996       0.000000
                                                         2.540273       0.000000
                          1       8    5fxyz             0.052949      -0.001061
                                                         0.083802       0.002942
                                                         0.189498       0.022824
                                                         0.439257       0.107229
                                                         0.894040       3.628821
                                                         1.999996       0.000000
                                                         2.540273       0.000000
                          1       8    5fxz2             0.052949      -0.000612
                                                         0.083802       0.001698
                                                         0.189498       0.013177
                                                         0.439257       0.061909
                                                         0.894040       2.095101
                                                         1.999996       0.000000
                                                         2.540273       0.000000
                          1       8    5fy3              0.052949      -0.000274
                                                         0.083802       0.000760
                                                         0.189498       0.005893
                                                         0.439257       0.027686
                                                         0.894040       0.936958
                                                         1.999996       0.000000
                                                         2.540273       0.000000
                          1       8    5fy2z             0.052949      -0.000612
                                                         0.083802       0.001698
                                                         0.189498       0.013177
                                                         0.439257       0.061909
                                                         0.894040       2.095101
                                                         1.999996       0.000000
                                                         2.540273       0.000000
                          1       8    5fyz2             0.052949      -0.000612
                                                         0.083802       0.001698
                                                         0.189498       0.013177
                                                         0.439257       0.061909
                                                         0.894040       2.095101
                                                         1.999996       0.000000
                                                         2.540273       0.000000
                          1       8    5fz3              0.052949      -0.000274
                                                         0.083802       0.000760
                                                         0.189498       0.005893
                                                         0.439257       0.027686
                                                         0.894040       0.936958
                                                         1.999996       0.000000
                                                         2.540273       0.000000

     RI Auxiliary Basis Set             RI_aug-SZV-MOLOPT-GTH_N_RI_071_s_p_d_f_g

       Number of orbital shell sets:                                          17
       Number of orbital shells:                                              17
       Number of primitive Cartesian functions:                               17
       Number of Cartesian basis functions:                                  101
       Number of spherical basis functions:                                   71
       Norm type:                                                              2

       Normalised Cartesian orbitals:

                        Set   Shell   Orbital            Exponent    Coefficient

                          1       1    1s                0.131512       0.155645

                          2       1    7px               0.160998       0.145367
                          2       1    7py               0.160998       0.145367
                          2       1    7pz               0.160998       0.145367

                          3       1    2s                0.264634       0.262963

                          4       1   15gx4              0.279187       0.033315
                          4       1   15gx3y             0.279187       0.088144
                          4       1   15gx3z             0.279187       0.088144
                          4       1   15gx2y2            0.279187       0.113794
                          4       1   15gx2yz            0.279187       0.197097
                          4       1   15gx2z2            0.279187       0.113794
                          4       1   15gxy3             0.279187       0.088144
                          4       1   15gxy2z            0.279187       0.197097
                          4       1   15gxyz2            0.279187       0.197097
                          4       1   15gxz3             0.279187       0.088144
                          4       1   15gy4              0.279187       0.033315
                          4       1   15gy3z             0.279187       0.088144
                          4       1   15gy2z2            0.279187       0.113794
                          4       1   15gyz3             0.279187       0.088144
                          4       1   15gz4              0.279187       0.033315

                          5       1    8px               0.394518       0.445680
                          5       1    8py               0.394518       0.445680
                          5       1    8pz               0.394518       0.445680

                          6       1   11dx2              0.395905       0.325233
                          6       1   11dxy              0.395905       0.563320
                          6       1   11dxz              0.395905       0.563320
                          6       1   11dy2              0.395905       0.325233
                          6       1   11dyz              0.395905       0.563320
                          6       1   11dz2              0.395905       0.325233

                          7       1   13fx3              0.522089       0.341099
                          7       1   13fx2y             0.522089       0.762720
                          7       1   13fx2z             0.522089       0.762720
                          7       1   13fxy2             0.522089       0.762720
                          7       1   13fxyz             0.522089       1.321070
                          7       1   13fxz2             0.522089       0.762720
                          7       1   13fy3              0.522089       0.341099
                          7       1   13fy2z             0.522089       0.762720
                          7       1   13fyz2             0.522089       0.762720
                          7       1   13fz3              0.522089       0.341099

                          8       1    3s                0.529077       0.442129

                          9       1    4s                1.047615       0.738008

                         10       1    9px               1.153622       1.704195
                         10       1    9py               1.153622       1.704195
                         10       1    9pz               1.153622       1.704195

                         11       1   12dx2              1.329303       2.708639
                         11       1   12dxy              1.329303       4.691501
                         11       1   12dxz              1.329303       4.691501
                         11       1   12dy2              1.329303       2.708639
                         11       1   12dyz              1.329303       4.691501
                         11       1   12dz2              1.329303       2.708639

                         12       1   14fx3              1.690595       4.797813
                         12       1   14fx2y             1.690595      10.728236
                         12       1   14fx2z             1.690595      10.728236
                         12       1   14fxy2             1.690595      10.728236
                         12       1   14fxyz             1.690595      18.581849
                         12       1   14fxz2             1.690595      10.728236
                         12       1   14fy3              1.690595       4.797813
                         12       1   14fy2z             1.690595      10.728236
                         12       1   14fyz2             1.690595      10.728236
                         12       1   14fz3              1.690595       4.797813

                         13       1   16gx4              2.004716       7.534958
                         13       1   16gx3y             2.004716      19.935625
                         13       1   16gx3z             2.004716      19.935625
                         13       1   16gx2y2            2.004716      25.736781
                         13       1   16gx2yz            2.004716      44.577413
                         13       1   16gx2z2            2.004716      25.736781
                         13       1   16gxy3             2.004716      19.935625
                         13       1   16gxy2z            2.004716      44.577413
                         13       1   16gxyz2            2.004716      44.577413
                         13       1   16gxz3             2.004716      19.935625
                         13       1   16gy4              2.004716       7.534958
                         13       1   16gy3z             2.004716      19.935625
                         13       1   16gy2z2            2.004716      25.736781
                         13       1   16gyz3             2.004716      19.935625
                         13       1   16gz4              2.004716       7.534958

                         14       1    5s                2.095930       1.241488

                         15       1   17hx5              2.117166       8.492732
                         15       1   17hx4y             2.117166      25.478197
                         15       1   17hx4z             2.117166      25.478197
                         15       1   17hx3y2            2.117166      38.918588
                         15       1   17hx3yz            2.117166      67.408973
                         15       1   17hx3z2            2.117166      38.918588
                         15       1   17hx2y3            2.117166      38.918588
                         15       1   17hx2y2z           2.117166      87.024609
                         15       1   17hx2yz2           2.117166      87.024609
                         15       1   17hx2z3            2.117166      38.918588
                         15       1   17hxy4             2.117166      25.478197
                         15       1   17hxy3z            2.117166      67.408973
                         15       1   17hxy2z2           2.117166      87.024609
                         15       1   17hxyz3            2.117166      67.408973
                         15       1   17hxz4             2.117166      25.478197
                         15       1   17hy5              2.117166       8.492732
                         15       1   17hy4z             2.117166      25.478197
                         15       1   17hy3z2            2.117166      38.918588
                         15       1   17hy2z3            2.117166      38.918588
                         15       1   17hyz4             2.117166      25.478197
                         15       1   17hz5              2.117166       8.492732

                         16       1   10px               3.762709       7.469918
                         16       1   10py               3.762709       7.469918
                         16       1   10pz               3.762709       7.469918

                         17       1    6s                4.220249       2.098523

       Atomic covalent radius [Angstrom]:                                  1.300

       Atomic van der Waals radius [Angstrom]:                             1.670

     GTH Potential information for                                   GTH-PBE-q14

       Description:                       Goedecker-Teter-Hutter pseudopotential
                                           Goedecker et al., PRB 54, 1703 (1996)
                                          Hartwigsen et al., PRB 58, 3641 (1998)
                                                      Krack, TCA 114, 145 (2005)

       Gaussian exponent of the core charge distribution:               2.704164
       Electronic configuration (s p d ...):                           3   6   5

       Parameters of the local part of the GTH pseudopotential:

                          rloc        C1          C2          C3          C4
                        0.430000   28.609368   -4.721803

       Parameters of the non-local part of the GTH (SOC) pseudopotential:

                   l      r(l)      h(i,j,l)
                                    k(i,j,l)
                   0    0.345216    0.146303    2.762005
                                    2.762005   -3.565733
                   1    0.416888   -0.190785   -0.728744
                                   -0.728744    0.862262
                                    0.101036    0.157628
                                    0.157628   -0.186508
                   2    0.420508    1.216814   -2.686463
                                   -2.686463    3.046162
                                    0.001360    0.022739
                                    0.022739   -0.025783

  2. Atomic kind: S                                     Number of atoms:       2

     Orbital Basis Set                                        aug-SZV-MOLOPT-GTH

       Number of orbital shell sets:                                           1
       Number of orbital shells:                                               5
       Number of primitive Cartesian functions:                                5
       Number of Cartesian basis functions:                                   14
       Number of spherical basis functions:                                   13
       Norm type:                                                              2

       Normalised Cartesian orbitals:

                        Set   Shell   Orbital            Exponent    Coefficient

                          1       1    2s                0.140587      -0.040370
                                                         0.180000       0.000000
                                                         0.410168      -0.373736
                                                         1.131471       0.138505
                                                         2.215855       0.308496

                          1       2    3s                0.140587       0.215877
                                                         0.180000      -0.063573
                                                         0.410168      -0.003183
                                                         1.131471       0.009148
                                                         2.215855       0.000000

                          1       3    3px               0.140587      -0.030976
                                                         0.180000       0.000000
                                                         0.410168      -0.335323
                                                         1.131471      -0.319283
                                                         2.215855       0.420435
                          1       3    3py               0.140587      -0.030976
                                                         0.180000       0.000000
                                                         0.410168      -0.335323
                                                         1.131471      -0.319283
                                                         2.215855       0.420435
                          1       3    3pz               0.140587      -0.030976
                                                         0.180000       0.000000
                                                         0.410168      -0.335323
                                                         1.131471      -0.319283
                                                         2.215855       0.420435

                          1       4    4px               0.140587       0.232660
                                                         0.180000      -0.187878
                                                         0.410168       0.130536
                                                         1.131471       0.012023
                                                         2.215855       0.000000
                          1       4    4py               0.140587       0.232660
                                                         0.180000      -0.187878
                                                         0.410168       0.130536
                                                         1.131471       0.012023
                                                         2.215855       0.000000
                          1       4    4pz               0.140587       0.232660
                                                         0.180000      -0.187878
                                                         0.410168       0.130536
                                                         1.131471       0.012023
                                                         2.215855       0.000000

                          1       5    4dx2              0.140587       0.037609
                                                         0.180000      -0.002641
                                                         0.410168       0.122637
                                                         1.131471       0.291801
                                                         2.215855       0.000000
                          1       5    4dxy              0.140587       0.065140
                                                         0.180000      -0.004575
                                                         0.410168       0.212413
                                                         1.131471       0.505414
                                                         2.215855       0.000000
                          1       5    4dxz              0.140587       0.065140
                                                         0.180000      -0.004575
                                                         0.410168       0.212413
                                                         1.131471       0.505414
                                                         2.215855       0.000000
                          1       5    4dy2              0.140587       0.037609
                                                         0.180000      -0.002641
                                                         0.410168       0.122637
                                                         1.131471       0.291801
                                                         2.215855       0.000000
                          1       5    4dyz              0.140587       0.065140
                                                         0.180000      -0.004575
                                                         0.410168       0.212413
                                                         1.131471       0.505414
                                                         2.215855       0.000000
                          1       5    4dz2              0.140587       0.037609
                                                         0.180000      -0.002641
                                                         0.410168       0.122637
                                                         1.131471       0.291801
                                                         2.215855       0.000000

     RI Auxiliary Basis Set             RI_aug-SZV-MOLOPT-GTH_N_RI_030_s_p_d_f_g

       Number of orbital shell sets:                                          10
       Number of orbital shells:                                              10
       Number of primitive Cartesian functions:                               10
       Number of Cartesian basis functions:                                   35
       Number of spherical basis functions:                                   30
       Norm type:                                                              2

       Normalised Cartesian orbitals:

                        Set   Shell   Orbital            Exponent    Coefficient

                          1       1    1s                0.220870       0.229621

                          2       1    8dx2              0.302875       0.203527
                          2       1    8dxy              0.302875       0.352518
                          2       1    8dxz              0.302875       0.352518
                          2       1    8dy2              0.302875       0.203527
                          2       1    8dyz              0.302875       0.352518
                          2       1    8dz2              0.302875       0.203527

                          3       1    5px               0.375262       0.418657
                          3       1    5py               0.375262       0.418657
                          3       1    5pz               0.375262       0.418657

                          4       1    2s                0.528149       0.441547

                          5       1   10fx3              0.572308       0.419393
                          5       1   10fx2y             0.572308       0.937792
                          5       1   10fx2z             0.572308       0.937792
                          5       1   10fxy2             0.572308       0.937792
                          5       1   10fxyz             0.572308       1.624303
                          5       1   10fxz2             0.572308       0.937792
                          5       1   10fy3              0.572308       0.419393
                          5       1   10fy2z             0.572308       0.937792
                          5       1   10fyz2             0.572308       0.937792
                          5       1   10fz3              0.572308       0.419393

                          6       1    6px               0.626687       0.794792
                          6       1    6py               0.626687       0.794792
                          6       1    6pz               0.626687       0.794792

                          7       1    9dx2              0.775701       1.055296
                          7       1    9dxy              0.775701       1.827826
                          7       1    9dxz              0.775701       1.827826
                          7       1    9dy2              0.775701       1.055296
                          7       1    9dyz              0.775701       1.827826
                          7       1    9dz2              0.775701       1.055296

                          8       1    3s                1.309927       0.872660

                          9       1    7px               2.407007       4.273530
                          9       1    7py               2.407007       4.273530
                          9       1    7pz               2.407007       4.273530

                         10       1    4s                3.212001       1.709983

       Atomic covalent radius [Angstrom]:                                  1.020

       Atomic van der Waals radius [Angstrom]:                             1.800

     GTH Potential information for                                    GTH-PBE-q6

       Description:                       Goedecker-Teter-Hutter pseudopotential
                                           Goedecker et al., PRB 54, 1703 (1996)
                                          Hartwigsen et al., PRB 58, 3641 (1998)
                                                      Krack, TCA 114, 145 (2005)

       Gaussian exponent of the core charge distribution:               2.834467
       Electronic configuration (s p d ...):                               2   4

       Parameters of the local part of the GTH pseudopotential:

                          rloc        C1          C2          C3          C4
                        0.420000   -5.986260

       Parameters of the non-local part of the GTH (SOC) pseudopotential:

                   l      r(l)      h(i,j,l)
                                    k(i,j,l)
                   0    0.364820   13.143544   -4.241830
[...]
 compute_Sigma_c                      1  7.0    0.001    0.005  962.155  962.167
 compute_chi                          1  7.0    0.034    0.054  748.229  748.247
 contract_to_Sigma                  210  8.0    6.707    7.263  577.032  608.015
 dbt_tas_dbm                    1599278 15.0    1.276    1.358  493.412  536.548
 dbm_multiply                   1599278 17.0  490.585  533.995  490.585  533.995
 contract_W                         110  8.0    1.582    1.636  380.800  403.347
 contract_M_occ_vir_to_chi          100  8.0   11.036   12.152  338.730  401.842
 dbt_tas_estimate_result_nze     799639 13.5  118.345  121.946  375.174  387.699
 contract_to_Sigma_3c_x_G       1070790  9.0    1.170    1.227  338.826  365.179
 dbt_copy                       2929554 11.1    8.768    9.451  287.182  353.007
 G_times_3c                        7780  8.0    1.716    1.809  306.731  322.625
 dbt_reshape                    1875243 12.0  163.748  200.963  206.039  260.181
 contract_to_Sigma_contract        8169  9.0    2.061    2.192  228.283  238.166
 dbt_tas_mm_2                    532498 16.1    0.531    0.583  195.415  234.614
 dbt_tas_mm_3T                   682430 16.2    0.407    0.442  200.220  211.694
 mp_sync                        ******* 12.1  131.133  193.453  131.133  193.453
 reshape_mm_small               1599278 15.0   94.632   97.387  179.288  184.863
 get_t_3c_int                   1810625  9.6    4.586    4.788  137.948  170.389
 scf_env_do_scf                       1  3.0    0.004    0.005  108.931  108.932
 scf_env_do_scf_inner_loop           49  4.0    0.007    0.008  108.927  108.930
 dbt_tas_create_split           4713533 16.0    2.688    2.870  100.313  104.902
 dbt_tas_mm_1N                   413640 15.5    0.221    0.249   96.249  103.112
 dbt_tas_create_split_rows_or_c 4713533 17.0   10.057   10.517   97.625  102.085
 qs_scf_new_mos_kp                   49  5.0    0.000    0.000   98.875   98.896
 do_general_diag_kp                  49  6.0    0.133    0.145   98.875   98.896
 dbt_tas_reshape                1822908 15.5    8.679    9.110   93.952   98.878
 create_and_init_bs_env_for_gw        1  6.0    0.004    0.004   95.058   95.063
 reshape_mm_compatible          1599278 15.0   13.153   13.761   90.467   94.294
 copy_dbcsr_to_fm                 89998  7.7    0.462    0.481   85.374   85.818
 dbcsr_complete_redistribute     145941  9.2    2.386    3.159   78.559   81.802
 compute_Sigma_x                      1  7.0    0.001    0.001   78.890   78.897
 compute_3c_integrals                 1  7.0    0.020    0.021   77.444   77.445
 build_3c_integrals                   1  8.0   71.645   75.539   73.454   77.316
 dbt_tas_distribution_new       3700842 15.8   36.162   37.735   69.206   71.975
 change_split                   2175287 15.5    4.378    4.572   63.020   66.090
 dbcsr_desymmetrize_deep         155134  8.1    1.132    1.297   63.684   64.613
 dbt_remap                       116853 11.0   10.799   11.510   60.320   63.761
 convert_to_new_pgrid           4797834 15.0    8.640    9.014   53.774   61.904
 dbt_tas_reserve_blocks_index   6286450 15.7    4.384    4.569   40.930   57.737
 mp_cart_create                 7592944 16.7   50.433   52.877   55.052   57.713
 dbm_reserve_blocks             7881786 16.6   40.808   57.665   40.808   57.665
 dbt_tas_replicate              1599278 15.0   24.877   26.103   51.731   53.925
 dbm_copy                       3198556 16.0   45.134   53.647   45.134   53.647
 compute_W_real_space                 1  7.0    0.290    0.303   48.887   48.894
 dbt_tas_reshape_buffer_fill    1822908 16.5   44.891   48.256   44.891   48.256
 mp_alltoall_d11v                903225 10.1   40.939   41.495   40.939   41.495
 mp_alltoall_i11v                592957  9.9   38.666   38.706   38.666   38.706
 dbt_copy_nocomm                 333830 11.0   24.724   29.457   29.916   38.422
 dbt_tas_copy                   1126629 12.6   23.751   27.610   32.386   38.408
 dbt_reserve_blocks_index_array 2134408 13.0    1.411    1.562   22.471   36.762
 dbt_reserve_blocks_index       2174006 13.9    2.047    2.239   22.554   36.705
 mp_alltoall_i22                 301075  9.6   31.188   34.766   31.188   34.766
 mp_comm_dup                    3913898 18.6   30.930   32.469   32.874   34.507
 G_occ_vir                           41  8.0    0.053    0.064   34.045   34.123
 copy_fm_to_dbcsr                 55943  9.0    0.129    0.135   28.078   31.287
 dbt_tas_reshape_buffer_obtain  1822908 16.5   20.617   21.834   28.968   30.798
 parallel_gemm_cfm                62712  8.7    0.033    0.043   29.119   29.990
 parallel_gemm_cfm_cosma          62712  9.7   29.086   29.957   29.086   29.957
 dbt_communicate_buffer         1875243 13.0   22.922   29.556   22.922   29.556
 fm_to_local_tensor               27508  9.0    0.209    0.218   27.498   27.501
 compute_Minv_and_Vsqrt               1  8.0    0.004    0.004   27.063   27.075
 build_2c_coulomb_matrix_kp_sma       2  9.0    0.073    0.078   26.046   26.052
 dbt_permute_index              4154929 12.2   19.638   21.372   22.268   24.158
 local_dbt_to_global_fm              31  8.0    0.027    0.030   23.381   23.381
 mp_comm_split_direct           4713537 18.0   20.027   21.107   21.390   22.527
 dos_pdos_ldos                        1  5.0    0.003    0.003   22.436   22.505
 cp_cfm_heevd                      3337  7.6    0.002    0.002   21.463   21.535
 cp_cfm_heevd_base                 3337  8.6   21.461   21.533   21.461   21.533
 mp_comm_free                   ******* 15.7   20.496   21.433   20.496   21.433
 hybrid_alltoall_any             155134  9.1    0.341    0.353   20.979   21.313
 SOC_ev                            1448  6.0    0.014    0.017   19.752   19.769
 dbt_tas_reserve_blocks_templat 2698806 14.1    4.121    4.445   16.555   19.638
 compute_QP_energies                  1  7.0    0.010    0.018   18.726   18.735
 trafo_to_k_and_nn                15204  8.0    0.050    0.058   18.652   18.668
 kpoint_density_transform            49  7.0    0.047    0.052   18.429   18.454
 dbt_tas_create_new             5960431 15.3   16.625   17.988   16.625   17.988
 dbt_align_index                2398917 11.5    2.444    2.595   15.638   16.372
 dbm_add                        1599278 15.0   14.686   15.560   14.686   15.560
 mp_sum_dm                        23088 10.0   13.149   14.254   13.149   14.254
 mp_cart_sub                     180035  9.7   13.650   13.680   13.650   13.680
 reshape_mm_template             233706 15.5    7.543    8.724   11.893   12.933
 dbt_tas_mp_comm                 911454 13.2    1.399    1.554   12.189   12.856
 rsmat_to_kp                       4344  7.2    0.031    0.033   12.410   12.489
 mp_waitall_1                    468421 10.3    9.979   12.098    9.979   12.098
 setup_cells_3c                       1  7.0    0.272    0.275   11.620   11.620
 build_3c_integral_block          20250  8.0    4.527    4.806   11.235   11.345
 get_V_tr_R                          14  8.9    0.019    0.021   10.963   10.971
 create_and_init_bs_env               1  5.0    0.000    0.000   10.937   10.937
 compute_cfm_mo_coeff_kp_and_ei       1  6.0    0.002    0.002   10.934   10.935
 dbt_tas_merge                   532498 15.1    6.821    7.794    9.704   10.907
 global_matrix_to_local_matrix    27508 10.0    0.185    0.262    9.448   10.860
 add_R                          *******  9.3    7.391    7.798   10.255   10.814
 rskp_transform                   32568  7.2    0.392   10.272    0.392   10.272
 mult_W_with_Minv                    10  8.0    0.093    0.099   10.227   10.237
 dbt_distribution_new_expert     288732 12.3    1.769    1.896    9.525   10.045
 mp_cart_get                    ******* 16.0    9.023    9.512    9.023    9.512
 dbt_reserve_blocks_template     333830 12.0    0.518    0.620    5.192    9.375
 dbm_filter                     2371139 14.9    7.669    7.992    7.669    7.992
 send_data                        27508 11.0    0.015    0.018    6.040    7.699
 communicate_buffer               27508 12.0    0.368    1.462    6.024    7.684
 fm_to_local_array                  114  8.2    2.287    2.356    7.471    7.495
 fm_MWM_R_t_to_local_tensor_W_R      10  8.0    0.004    0.004    7.482    7.483
 mp_comm_size                   ******* 16.3    6.816    7.272    6.816    7.272
 cp_fm_start_copy_general         84672  7.3    0.408    0.715    7.102    7.148
 add_V_L                          11520 10.0    0.438    7.024    0.438    7.024
 dbt_destroy                    4875174 11.2    5.979    6.239    6.624    6.902
 dbt_tas_communicate_buffer     3422186 17.2    6.267    6.875    6.267    6.875
 dbt_tas_reshape_communicate_bu 1822908 16.5    1.129    1.290    6.166    6.678
 cp_cfm_geeig_canon                 724  7.0    0.003    0.003    6.525    6.537
 abc_contract_xsmm                57549  9.0    6.429    6.530    6.429    6.530
 soc                                  1  5.0    0.000    0.000    6.052    6.052
 fm_add_ikp_to_rs                 23616  9.0    3.816    3.864    5.828    6.050
 H_KS_spinor_kp                       1  6.0    0.004    0.005    6.027    6.036
 mp_sum_dm3                         184  8.8    5.925    6.020    5.925    6.020
 dbcsr_finalize                  507449 10.4    0.974    1.080    5.150    5.833
 mp_comm_rank                   ******* 16.3    5.163    5.574    5.163    5.574
 dbt_create_new                  144366 11.8    1.081    1.158    5.103    5.354
 qs_ks_build_kohn_sham_matrix        52  7.1    0.024    0.025    5.207    5.228
 qs_ks_update_qs_env                 49  5.0    0.000    0.000    5.173    5.191
 mp_allgather_i                  169344  8.3    4.936    5.061    4.936    5.061
 is_cell_in_index_to_cell       *******  9.8    4.774    4.938    4.774    4.938
 rebuild_ks_matrix                   49  6.0    0.000    0.000    4.913    4.932
 transform_dmat                   14112  8.0    0.178    4.779    0.178    4.779
 transfer_pw2rs                     261 10.6    0.001    0.002    4.592    4.768
 add_rs_to_ikp                  8293662 10.0    4.530    4.731    4.530    4.731
 sum_up_and_integrate                52  8.1    0.007    0.009    0.378    4.728
 integrate_v_rspace                  52  9.1    0.001    0.009    0.370    4.721
 transfer_pw2rs_250                 105 11.0    0.054    0.060    4.524    4.701
 build_2c_coulomb_matrix_kp_sma   23040 10.0    4.549    4.631    4.549    4.631
 local_dbt_to_global_mat          16399  9.0    0.055    0.057    3.292    4.619
 integrate_vhg0_rspace               52  8.1    0.001    0.001    4.436    4.610
 grid_integrate_task_list            52 10.1    0.155    4.503    0.155    4.503
 add_ikp_to_rs                  ******* 10.0    3.913    4.209    3.913    4.209
 fm_trafo_rs_to_ikp               15204  9.0    2.474    2.513    3.922    4.093
 mp_alltoall_i                  7206144 15.1    3.802    4.008    3.802    4.008
 qs_rho_update_rho_low               50  5.0    0.000    0.001    3.964    3.965
 calculate_rho_elec                  50  6.0    0.002    0.005    3.962    3.963
 transfer_rs2pw                     254  8.4    0.002    0.002    3.703    3.854
 transfer_rs2pw_250                 104 10.0    0.069    0.077    3.647    3.810
 density_rs2pw                       50  7.0    0.001    0.001    3.637    3.785
 mp_sendrecv_dv                   16002 10.4    3.618    3.772    3.618    3.772
 grid_collocate_task_list            50  7.0    0.320    3.728    0.320    3.728
 trafo_rs_to_ikp                    474  8.5    0.101    0.109    3.182    3.242
 trafo_V_xc_R_to_kp                   1  7.0    0.003    0.003    3.157    3.159
 local_matrix_to_global_matrix    16399 10.0    0.030    0.032    1.818    3.135
 dbm_scale                      3403047 13.4    2.870    3.034    2.870    3.034
 dbt_tas_reshape_get_coord      1822908 16.5    2.810    2.987    2.810    2.987
 dbcsr_merge_all                 189557 11.4    1.839    2.149    2.591    2.929
 get_data                         27508 11.0    0.442    2.873    0.477    2.915
 dbt_create_matrix                27508 10.0    0.157    0.164    2.764    2.844
 get_Minv_Vtr_Minv_R                  1  8.0    0.011    0.012    2.708    2.712
 dbt_pgrid_create_expert         288735 13.3    0.385    0.435    2.405    2.542
 mp_sum_l                       8504095 15.2    2.341    2.463    2.341    2.463
 mp_sum_dv                        19700  8.7    1.875    2.321    1.875    2.321
 compute_proj_mo_on_kind            724  6.0    0.010    0.012    2.260    2.298
 dbt_create_3c_R1_R2                 22  8.0    0.410    0.443    2.121    2.180
 dbt_tas_reshape_alltoall       1822908 16.5    0.964    1.053    1.921    2.134
 dbcsr_filter_anytype            134122 10.8    0.280    0.288    1.756    2.129
 add_ikp_to_all_rs                  329  8.3    0.063    0.069    1.967    2.091
 dbt_create_template             581402  9.0    1.934    1.996    1.934    1.996
 dbt_nd_mp_comm                  144361 11.8    0.251    0.283    1.733    1.839
 destroy_t_2d                        22  8.0    0.475    0.615    1.712    1.838
 power                              628  8.2    0.117    0.132    1.744    1.803
 mp_sum_i                       1403162 16.0    1.687    1.776    1.687    1.776
 dbt_tas_replicate_communicate_ 1094570 15.9    0.635    0.699    1.590    1.719
 diag_complex                       628  9.2    1.627    1.687    1.627    1.687
 mp_bcast_i                     4714034 18.0    1.299    1.514    1.299    1.514
 mp_max_i                       5592786 11.6    1.307    1.429    1.307    1.429
 alloc_block_3c                       1  9.0    0.066    0.072    1.388    1.409
 dbcsr_work_create               344691  9.9    0.868    0.950    1.268    1.390
 dbcsr_create_new                514821  9.3    1.018    1.097    1.277    1.355
 mp_cart_rank                   4378480 15.9    1.202    1.317    1.202    1.317
 mp_bcast_iv                     338754  8.3    1.199    1.310    1.199    1.310
 set_blocks                       16399 11.0    0.120    0.482    0.599    1.303
 send_sizes_1                     27508 11.0    0.016    0.017    1.236    1.298
 dbcsr_iterator_start           1139517 10.3    0.959    0.978    1.146    1.200
 heuristic_RI_regularization          1  7.0    0.000    0.000    1.120    1.120
 mp_dims_create                 3700839 14.4    1.037    1.119    1.037    1.119
 write_SOC_eigenvalues              148  6.0    0.017    1.066    0.017    1.066
 add_to_DOS_PDOS                   2896  6.5    1.023    1.043    1.023    1.043
 dbt_distribution_destroy        288732 12.3    0.745    0.825    0.918    1.011
 build_2c_integrals                  14  9.9    0.044    0.557    0.081    1.005
 dbt_tas_replicate_alltoall     1094570 15.9    0.546    0.629    0.911    1.001
 mp_isend_dv                    1942648 11.4    0.223    0.983    0.223    0.983
 dbcsr_work_destroy_all          344691 10.8    0.640    0.688    0.892    0.973
 setup_parallelization_Delta_R        1  7.0    0.000    0.000    0.906    0.906
 compute_n_tensor_ops_Delta_R         1  8.0    0.249    0.412    0.905    0.905
 copy_fm_to_dbcsr_bc              55943 10.0    0.240    0.257    0.859    0.884
 cp_cfm_geeig                       441  7.0    0.008    0.010    0.791    0.859
 dbcsr_data_release             5125160 11.3    0.758    0.853    0.758    0.853
 dbcsr_data_new                 3288528 10.8    0.750    0.831    0.750    0.831
 dbt_buffer_get_index           3422186 16.8    0.752    0.817    0.752    0.817
 comm_data                        16399 11.0    0.048    0.156    0.324    0.806
 send_sizes_2                     27508 11.0    0.015    0.016    0.746    0.801
 dbcsr_destroy                   476478  9.2    0.397    0.409    0.758    0.798
 dbt_tas_merge_alltoall          532498 16.1    0.454    0.494    0.718    0.772
 write_kpoints_restart               49  5.0    0.002    0.036    0.757    0.766
 dbcsr_iterator_stop            1139517 10.3    0.561    0.617    0.694    0.765
 dbt_tas_merge_communicate_buff  532498 16.1    0.338    0.373    0.614    0.683
 mp_sum_iv                         1472  9.0    0.435    0.681    0.435    0.681
 compute_V_xc                         1  7.0    0.000    0.000    0.608    0.611
 dbt_copy_matrix_to_tensor        27508 10.0    0.192    0.202    0.542    0.562
 mp_waitall_2                     32798 12.0    0.237    0.556    0.237    0.556
 mp_isend_im2                   1874734 12.9    0.081    0.547    0.081    0.547
 comm_size                        16399 11.0    0.011    0.012    0.489    0.520
 reserve_blocks                   27508 11.0    0.062    0.067    0.487    0.519
 copy_dbcsr_to_fm_bc              89998  8.7    0.228    0.249    0.488    0.505
 quick_finalize                  155134 10.1    0.226    0.279    0.376    0.501
 tree_to_linear_d                155630 12.2    0.460    0.497    0.460    0.497
 dbcsr_set                       398792  9.9    0.186    0.196    0.392    0.469
 dbcsr_reserve_blocks            135591 11.8    0.284    0.390    0.346    0.468
 mp_bcast_im                     169344  8.3    0.389    0.427    0.389    0.427
 add_cfm_submat                    7240  7.0    0.028    0.029    0.350    0.408
 analyt_conti_and_print             724  8.0    0.020    0.350    0.058    0.398
 ab_contract                     543898 10.9    0.019    0.384    0.019    0.384
 dbcsr_copy                       66778  8.9    0.093    0.128    0.283    0.365
 cp_fm_to_fm_submat               14480  8.0    0.304    0.360    0.304    0.360
 fill_buffer                      16399 11.0    0.187    0.312    0.207    0.335
 create_qs_kind_set                   1  2.0    0.000    0.001    0.313    0.314
 read_qs_kind                         2  3.0    0.182    0.193    0.313    0.314
 dbt_reserve_blocks_matrix_to_t   27508 11.0    0.075    0.077    0.291    0.303
 mp_bcast_dm                          1  9.0    0.279    0.284    0.279    0.284
 fft_wrap_pw1pw2                    968 10.1    0.003    0.003    0.265    0.282
 dbcsr_zero                      398792 10.9    0.205    0.276    0.205    0.276
 dbcsr_reserve_all_blocks         72342 11.2    0.057    0.060    0.197    0.265
 fill_mat_local                   27508 11.0    0.182    0.232    0.215    0.264
 dbt_copy_tensor_to_matrix        16399 10.0    0.079    0.120    0.219    0.264
 evaluate_core_matrix_traces         49  6.0    0.000    0.000    0.260    0.262
 calculate_ptrace_kp                 98  7.0    0.007    0.007    0.260    0.262
 dbcsr_dot                        20679  8.0    0.038    0.053    0.255    0.259
 mp_sum_d                         21674  8.8    0.226    0.238    0.226    0.238
 dbcsr_iterator_seek            1139517 11.3    0.187    0.236    0.187    0.236
 get_coord                        16399 11.0    0.079    0.088    0.169    0.233
 cp_cfm_gemm                       2172  8.0    0.206    0.227    0.206    0.227
 fft_wrap_pw1pw2_250                662 11.4    0.008    0.009    0.205    0.220
 dbcsr_sort_indices              374658 12.2    0.114    0.218    0.114    0.218
 potential_pw2rs                     52 10.1    0.001    0.001    0.214    0.216
 -------------------------------------------------------------------------------

 The number of warnings for this run is : 1
 
 -------------------------------------------------------------------------------
  **** **** ******  **  PROGRAM ENDED AT                 2025-03-09 10:58:52.417
 ***** ** ***  *** **   PROGRAM RAN ON                     n2cn0922.ab2021.local
 **    ****   ******    PROGRAM RAN BY                                  metdyn02
 ***** **    ** ** **   PROGRAM PROCESS ID                               2787247
  **** **  *******  **  PROGRAM STOPPED IN /scratch/hpc-prf-metdyn/metdyn02_Remi
                                           /05_TMD_new/SNG/1_MoS2_SCAL_test/4N8o
                                           mp
