 CP2K| version string:                 CP2K version 2025.1 (Development Version)
 CP2K| source code revision number:                                  git:da03128
 CP2K| cp2kflags: omp libint fftw3 libxc libgrpp xsmm spglib libvori libbqb     
 CP2K| is freely available from                            https://www.cp2k.org/
 CP2K| Program compiled at                      Wed Apr 23 01:51:06 AM CEST 2025
 CP2K| Program compiled on                         localadmin-ThinkPad-P16-Gen-2
 CP2K| Program compiled for                                                local
 CP2K| Data directory path                            /home/localadmin/cp2k/data
 CP2K| Input file name                                                    GW.inp

 GLOBAL| Force Environment number                                              1
 GLOBAL| Basis set file name            /home/localadmin/Documents/Benchmark_TMD
 GLOBAL| Potential file name            /home/localadmin/cp2k/data/GTH_SOC_POTEN
 GLOBAL| MM Potential file name                                     MM_POTENTIAL
 GLOBAL| Coordinate file name                                      __STD_INPUT__
 GLOBAL| Method name                                                        CP2K
 GLOBAL| Project name                                                       WSe2
 GLOBAL| Run type                                                         ENERGY
 GLOBAL| FFT library                                                       FFTW3
 GLOBAL| Diagonalization library                                       ScaLAPACK
 GLOBAL| DGEMM library                                                      BLAS
 GLOBAL| Orthonormality check for eigenvectors                          DISABLED
 GLOBAL| Matrix multiplication library                                 ScaLAPACK
 GLOBAL| All-to-all communication in single precision                          F
 GLOBAL| FFTs using library dependent lengths                                  F
 GLOBAL| Grid backend                                                       AUTO
 GLOBAL| Global print level                                               MEDIUM
 GLOBAL| MPI I/O enabled                                                       T
 GLOBAL| Total number of message passing processes                             1
 GLOBAL| Number of threads for this process                                    8
 GLOBAL| This output is from process                                           0
 GLOBAL| OpenMP stack size per thread (OMP_STACKSIZE)                    default
 GLOBAL| CPU model name                    13th Gen Intel(R) Core(TM) i5-13600HX
 GLOBAL| CPUID                                                              1002

 MEMORY| system memory details [Kb]
 MEMORY|                        rank 0           min           max       average
 MEMORY| MemTotal            197503856     197503856     197503856     197503856
 MEMORY| MemFree             168350144     168350144     168350144     168350144
 MEMORY| Buffers                217952        217952        217952        217952
 MEMORY| Cached               26137204      26137204      26137204      26137204
 MEMORY| Slab                  1122348       1122348       1122348       1122348
 MEMORY| SReclaimable           774752        774752        774752        774752
 MEMORY| MemLikelyFree       195480052     195480052     195480052     195480052


 *** Fundamental physical constants (SI units) ***

 *** Literature: B. J. Mohr and B. N. Taylor,
 ***             CODATA recommended values of the fundamental physical
 ***             constants: 2006, Web Version 5.1
 ***             http://physics.nist.gov/constants

 Speed of light in vacuum [m/s]                             2.99792458000000E+08
 Magnetic constant or permeability of vacuum [N/A**2]       1.25663706143592E-06
 Electric constant or permittivity of vacuum [F/m]          8.85418781762039E-12
 Planck constant (h) [J*s]                                  6.62606896000000E-34
 Planck constant (h-bar) [J*s]                              1.05457162825177E-34
 Elementary charge [C]                                      1.60217648700000E-19
 Electron mass [kg]                                         9.10938215000000E-31
 Electron g factor [ ]                                     -2.00231930436220E+00
 Proton mass [kg]                                           1.67262163700000E-27
 Fine-structure constant                                    7.29735253760000E-03
 Rydberg constant [1/m]                                     1.09737315685270E+07
 Avogadro constant [1/mol]                                  6.02214179000000E+23
 Boltzmann constant [J/K]                                   1.38065040000000E-23
 Atomic mass unit [kg]                                      1.66053878200000E-27
 Bohr radius [m]                                            5.29177208590000E-11

 *** Conversion factors ***

 [u] -> [a.u.]                                              1.82288848426455E+03
 [Angstrom] -> [Bohr] = [a.u.]                              1.88972613288564E+00
 [a.u.] = [Bohr] -> [Angstrom]                              5.29177208590000E-01
 [a.u.] -> [s]                                              2.41888432650478E-17
 [a.u.] -> [fs]                                             2.41888432650478E-02
 [a.u.] -> [J]                                              4.35974393937059E-18
 [a.u.] -> [N]                                              8.23872205491840E-08
 [a.u.] -> [K]                                              3.15774647902944E+05
 [a.u.] -> [kJ/mol]                                         2.62549961709828E+03
 [a.u.] -> [kcal/mol]                                       6.27509468713739E+02
 [a.u.] -> [Pa]                                             2.94210107994716E+13
 [a.u.] -> [bar]                                            2.94210107994716E+08
 [a.u.] -> [atm]                                            2.90362800883016E+08
 [a.u.] -> [eV]                                             2.72113838565563E+01
 [a.u.] -> [Hz]                                             6.57968392072181E+15
 [a.u.] -> [1/cm] (wave numbers)                            2.19474631370540E+05
 [a.u./Bohr**2] -> [1/cm]                                   5.14048714338585E+03
 

 CELL_TOP| Volume [angstrom^3]:                                       143.098933
 CELL_TOP| Vector a [angstrom     3.319     0.000     0.000   |a| =     3.319000
 CELL_TOP| Vector b [angstrom    -1.659     2.874     0.000   |b| =     3.319000
 CELL_TOP| Vector c [angstrom     0.000     0.000    15.000   |c| =    15.000000
 CELL_TOP| Angle (b,c), alpha [degree]:                                90.000000
 CELL_TOP| Angle (a,c), beta  [degree]:                                90.000000
 CELL_TOP| Angle (a,b), gamma [degree]:                               120.000000
 CELL_TOP| Numerically orthorhombic:                                          NO
 CELL_TOP| Periodicity                                                        XY

 GENERATE|  Preliminary Number of Bonds generated:                             0
 GENERATE|  Achieved consistency in connectivity generation.

 CELL| Volume [angstrom^3]:                                           143.098933
 CELL| Vector a [angstrom]:       3.319     0.000     0.000   |a| =     3.319000
 CELL| Vector b [angstrom]:      -1.659     2.874     0.000   |b| =     3.319000
 CELL| Vector c [angstrom]:       0.000     0.000    15.000   |c| =    15.000000
 CELL| Angle (b,c), alpha [degree]:                                    90.000000
 CELL| Angle (a,c), beta  [degree]:                                    90.000000
 CELL| Angle (a,b), gamma [degree]:                                   120.000000
 CELL| Numerically orthorhombic:                                              NO
 CELL| Periodicity                                                            XY

 CELL_REF| Volume [angstrom^3]:                                       143.098933
 CELL_REF| Vector a [angstrom     3.319     0.000     0.000   |a| =     3.319000
 CELL_REF| Vector b [angstrom    -1.659     2.874     0.000   |b| =     3.319000
 CELL_REF| Vector c [angstrom     0.000     0.000    15.000   |c| =    15.000000
 CELL_REF| Angle (b,c), alpha [degree]:                                90.000000
 CELL_REF| Angle (a,c), beta  [degree]:                                90.000000
 CELL_REF| Angle (a,b), gamma [degree]:                               120.000000
 CELL_REF| Numerically orthorhombic:                                          NO
 CELL_REF| Periodicity                                                        XY

 *******************************************************************************
                                    Kpoints
 *******************************************************************************
 BRILLOUIN| K-point scheme                                        Monkhorst-Pack
 BRILLOUIN| K-Point grid                                            24   24    1
 BRILLOUIN| Accuracy in Symmetry determination                      0.100000E-05
 BRILLOUIN| K-Point point group symmetrization                               OFF
 BRILLOUIN| Wavefunction type                                            COMPLEX
 BRILLOUIN| List of Kpoints [2 Pi/Bohr]                                      288
 BRILLOUIN| Number           Weight            X              Y              Z
 BRILLOUIN|     1           0.00347       -0.47917       -0.47917        0.00000
 BRILLOUIN|     2           0.00347       -0.47917       -0.43750        0.00000
 BRILLOUIN|     3           0.00347       -0.47917       -0.39583        0.00000
 BRILLOUIN|     4           0.00347       -0.47917       -0.35417        0.00000
 BRILLOUIN|     5           0.00347       -0.47917       -0.31250        0.00000
 BRILLOUIN|     6           0.00347       -0.47917       -0.27083        0.00000
 BRILLOUIN|     7           0.00347       -0.47917       -0.22917        0.00000
 BRILLOUIN|     8           0.00347       -0.47917       -0.18750        0.00000
 BRILLOUIN|     9           0.00347       -0.47917       -0.14583        0.00000
 BRILLOUIN|    10           0.00347       -0.47917       -0.10417        0.00000
 BRILLOUIN|    11           0.00347       -0.47917       -0.06250        0.00000
 BRILLOUIN|    12           0.00347       -0.47917       -0.02083        0.00000
 BRILLOUIN|    13           0.00347       -0.47917        0.02083        0.00000
 BRILLOUIN|    14           0.00347       -0.47917        0.06250        0.00000
 BRILLOUIN|    15           0.00347       -0.47917        0.10417        0.00000
 BRILLOUIN|    16           0.00347       -0.47917        0.14583        0.00000
 BRILLOUIN|    17           0.00347       -0.47917        0.18750        0.00000
 BRILLOUIN|    18           0.00347       -0.47917        0.22917        0.00000
 BRILLOUIN|    19           0.00347       -0.47917        0.27083        0.00000
 BRILLOUIN|    20           0.00347       -0.47917        0.31250        0.00000
 BRILLOUIN|    21           0.00347       -0.47917        0.35417        0.00000
 BRILLOUIN|    22           0.00347       -0.47917        0.39583        0.00000
 BRILLOUIN|    23           0.00347       -0.47917        0.43750        0.00000
 BRILLOUIN|    24           0.00347       -0.47917        0.47917        0.00000
 BRILLOUIN|    25           0.00347       -0.43750       -0.47917        0.00000
 BRILLOUIN|    26           0.00347       -0.43750       -0.43750        0.00000
 BRILLOUIN|    27           0.00347       -0.43750       -0.39583        0.00000
 BRILLOUIN|    28           0.00347       -0.43750       -0.35417        0.00000
 BRILLOUIN|    29           0.00347       -0.43750       -0.31250        0.00000
 BRILLOUIN|    30           0.00347       -0.43750       -0.27083        0.00000
 BRILLOUIN|    31           0.00347       -0.43750       -0.22917        0.00000
 BRILLOUIN|    32           0.00347       -0.43750       -0.18750        0.00000
 BRILLOUIN|    33           0.00347       -0.43750       -0.14583        0.00000
 BRILLOUIN|    34           0.00347       -0.43750       -0.10417        0.00000
 BRILLOUIN|    35           0.00347       -0.43750       -0.06250        0.00000
 BRILLOUIN|    36           0.00347       -0.43750       -0.02083        0.00000
 BRILLOUIN|    37           0.00347       -0.43750        0.02083        0.00000
 BRILLOUIN|    38           0.00347       -0.43750        0.06250        0.00000
 BRILLOUIN|    39           0.00347       -0.43750        0.10417        0.00000
 BRILLOUIN|    40           0.00347       -0.43750        0.14583        0.00000
 BRILLOUIN|    41           0.00347       -0.43750        0.18750        0.00000
 BRILLOUIN|    42           0.00347       -0.43750        0.22917        0.00000
 BRILLOUIN|    43           0.00347       -0.43750        0.27083        0.00000
 BRILLOUIN|    44           0.00347       -0.43750        0.31250        0.00000
 BRILLOUIN|    45           0.00347       -0.43750        0.35417        0.00000
 BRILLOUIN|    46           0.00347       -0.43750        0.39583        0.00000
 BRILLOUIN|    47           0.00347       -0.43750        0.43750        0.00000
 BRILLOUIN|    48           0.00347       -0.43750        0.47917        0.00000
 BRILLOUIN|    49           0.00347       -0.39583       -0.47917        0.00000
 BRILLOUIN|    50           0.00347       -0.39583       -0.43750        0.00000
 BRILLOUIN|    51           0.00347       -0.39583       -0.39583        0.00000
 BRILLOUIN|    52           0.00347       -0.39583       -0.35417        0.00000
 BRILLOUIN|    53           0.00347       -0.39583       -0.31250        0.00000
 BRILLOUIN|    54           0.00347       -0.39583       -0.27083        0.00000
 BRILLOUIN|    55           0.00347       -0.39583       -0.22917        0.00000
 BRILLOUIN|    56           0.00347       -0.39583       -0.18750        0.00000
 BRILLOUIN|    57           0.00347       -0.39583       -0.14583        0.00000
 BRILLOUIN|    58           0.00347       -0.39583       -0.10417        0.00000
 BRILLOUIN|    59           0.00347       -0.39583       -0.06250        0.00000
 BRILLOUIN|    60           0.00347       -0.39583       -0.02083        0.00000
 BRILLOUIN|    61           0.00347       -0.39583        0.02083        0.00000
 BRILLOUIN|    62           0.00347       -0.39583        0.06250        0.00000
 BRILLOUIN|    63           0.00347       -0.39583        0.10417        0.00000
 BRILLOUIN|    64           0.00347       -0.39583        0.14583        0.00000
 BRILLOUIN|    65           0.00347       -0.39583        0.18750        0.00000
 BRILLOUIN|    66           0.00347       -0.39583        0.22917        0.00000
 BRILLOUIN|    67           0.00347       -0.39583        0.27083        0.00000
 BRILLOUIN|    68           0.00347       -0.39583        0.31250        0.00000
 BRILLOUIN|    69           0.00347       -0.39583        0.35417        0.00000
 BRILLOUIN|    70           0.00347       -0.39583        0.39583        0.00000
 BRILLOUIN|    71           0.00347       -0.39583        0.43750        0.00000
 BRILLOUIN|    72           0.00347       -0.39583        0.47917        0.00000
 BRILLOUIN|    73           0.00347       -0.35417       -0.47917        0.00000
 BRILLOUIN|    74           0.00347       -0.35417       -0.43750        0.00000
 BRILLOUIN|    75           0.00347       -0.35417       -0.39583        0.00000
 BRILLOUIN|    76           0.00347       -0.35417       -0.35417        0.00000
 BRILLOUIN|    77           0.00347       -0.35417       -0.31250        0.00000
 BRILLOUIN|    78           0.00347       -0.35417       -0.27083        0.00000
 BRILLOUIN|    79           0.00347       -0.35417       -0.22917        0.00000
 BRILLOUIN|    80           0.00347       -0.35417       -0.18750        0.00000
 BRILLOUIN|    81           0.00347       -0.35417       -0.14583        0.00000
 BRILLOUIN|    82           0.00347       -0.35417       -0.10417        0.00000
 BRILLOUIN|    83           0.00347       -0.35417       -0.06250        0.00000
 BRILLOUIN|    84           0.00347       -0.35417       -0.02083        0.00000
 BRILLOUIN|    85           0.00347       -0.35417        0.02083        0.00000
 BRILLOUIN|    86           0.00347       -0.35417        0.06250        0.00000
 BRILLOUIN|    87           0.00347       -0.35417        0.10417        0.00000
 BRILLOUIN|    88           0.00347       -0.35417        0.14583        0.00000
 BRILLOUIN|    89           0.00347       -0.35417        0.18750        0.00000
 BRILLOUIN|    90           0.00347       -0.35417        0.22917        0.00000
 BRILLOUIN|    91           0.00347       -0.35417        0.27083        0.00000
 BRILLOUIN|    92           0.00347       -0.35417        0.31250        0.00000
 BRILLOUIN|    93           0.00347       -0.35417        0.35417        0.00000
 BRILLOUIN|    94           0.00347       -0.35417        0.39583        0.00000
 BRILLOUIN|    95           0.00347       -0.35417        0.43750        0.00000
 BRILLOUIN|    96           0.00347       -0.35417        0.47917        0.00000
 BRILLOUIN|    97           0.00347       -0.31250       -0.47917        0.00000
 BRILLOUIN|    98           0.00347       -0.31250       -0.43750        0.00000
 BRILLOUIN|    99           0.00347       -0.31250       -0.39583        0.00000
 BRILLOUIN|   100           0.00347       -0.31250       -0.35417        0.00000
 BRILLOUIN|   101           0.00347       -0.31250       -0.31250        0.00000
 BRILLOUIN|   102           0.00347       -0.31250       -0.27083        0.00000
 BRILLOUIN|   103           0.00347       -0.31250       -0.22917        0.00000
 BRILLOUIN|   104           0.00347       -0.31250       -0.18750        0.00000
 BRILLOUIN|   105           0.00347       -0.31250       -0.14583        0.00000
 BRILLOUIN|   106           0.00347       -0.31250       -0.10417        0.00000
 BRILLOUIN|   107           0.00347       -0.31250       -0.06250        0.00000
 BRILLOUIN|   108           0.00347       -0.31250       -0.02083        0.00000
 BRILLOUIN|   109           0.00347       -0.31250        0.02083        0.00000
 BRILLOUIN|   110           0.00347       -0.31250        0.06250        0.00000
 BRILLOUIN|   111           0.00347       -0.31250        0.10417        0.00000
 BRILLOUIN|   112           0.00347       -0.31250        0.14583        0.00000
 BRILLOUIN|   113           0.00347       -0.31250        0.18750        0.00000
 BRILLOUIN|   114           0.00347       -0.31250        0.22917        0.00000
 BRILLOUIN|   115           0.00347       -0.31250        0.27083        0.00000
 BRILLOUIN|   116           0.00347       -0.31250        0.31250        0.00000
 BRILLOUIN|   117           0.00347       -0.31250        0.35417        0.00000
 BRILLOUIN|   118           0.00347       -0.31250        0.39583        0.00000
 BRILLOUIN|   119           0.00347       -0.31250        0.43750        0.00000
 BRILLOUIN|   120           0.00347       -0.31250        0.47917        0.00000
 BRILLOUIN|   121           0.00347       -0.27083       -0.47917        0.00000
 BRILLOUIN|   122           0.00347       -0.27083       -0.43750        0.00000
 BRILLOUIN|   123           0.00347       -0.27083       -0.39583        0.00000
 BRILLOUIN|   124           0.00347       -0.27083       -0.35417        0.00000
 BRILLOUIN|   125           0.00347       -0.27083       -0.31250        0.00000
 BRILLOUIN|   126           0.00347       -0.27083       -0.27083        0.00000
 BRILLOUIN|   127           0.00347       -0.27083       -0.22917        0.00000
 BRILLOUIN|   128           0.00347       -0.27083       -0.18750        0.00000
 BRILLOUIN|   129           0.00347       -0.27083       -0.14583        0.00000
 BRILLOUIN|   130           0.00347       -0.27083       -0.10417        0.00000
 BRILLOUIN|   131           0.00347       -0.27083       -0.06250        0.00000
 BRILLOUIN|   132           0.00347       -0.27083       -0.02083        0.00000
 BRILLOUIN|   133           0.00347       -0.27083        0.02083        0.00000
 BRILLOUIN|   134           0.00347       -0.27083        0.06250        0.00000
 BRILLOUIN|   135           0.00347       -0.27083        0.10417        0.00000
 BRILLOUIN|   136           0.00347       -0.27083        0.14583        0.00000
 BRILLOUIN|   137           0.00347       -0.27083        0.18750        0.00000
 BRILLOUIN|   138           0.00347       -0.27083        0.22917        0.00000
 BRILLOUIN|   139           0.00347       -0.27083        0.27083        0.00000
 BRILLOUIN|   140           0.00347       -0.27083        0.31250        0.00000
 BRILLOUIN|   141           0.00347       -0.27083        0.35417        0.00000
 BRILLOUIN|   142           0.00347       -0.27083        0.39583        0.00000
 BRILLOUIN|   143           0.00347       -0.27083        0.43750        0.00000
 BRILLOUIN|   144           0.00347       -0.27083        0.47917        0.00000
 BRILLOUIN|   145           0.00347       -0.22917       -0.47917        0.00000
 BRILLOUIN|   146           0.00347       -0.22917       -0.43750        0.00000
 BRILLOUIN|   147           0.00347       -0.22917       -0.39583        0.00000
 BRILLOUIN|   148           0.00347       -0.22917       -0.35417        0.00000
 BRILLOUIN|   149           0.00347       -0.22917       -0.31250        0.00000
 BRILLOUIN|   150           0.00347       -0.22917       -0.27083        0.00000
 BRILLOUIN|   151           0.00347       -0.22917       -0.22917        0.00000
 BRILLOUIN|   152           0.00347       -0.22917       -0.18750        0.00000
 BRILLOUIN|   153           0.00347       -0.22917       -0.14583        0.00000
 BRILLOUIN|   154           0.00347       -0.22917       -0.10417        0.00000
 BRILLOUIN|   155           0.00347       -0.22917       -0.06250        0.00000
 BRILLOUIN|   156           0.00347       -0.22917       -0.02083        0.00000
 BRILLOUIN|   157           0.00347       -0.22917        0.02083        0.00000
 BRILLOUIN|   158           0.00347       -0.22917        0.06250        0.00000
 BRILLOUIN|   159           0.00347       -0.22917        0.10417        0.00000
 BRILLOUIN|   160           0.00347       -0.22917        0.14583        0.00000
 BRILLOUIN|   161           0.00347       -0.22917        0.18750        0.00000
 BRILLOUIN|   162           0.00347       -0.22917        0.22917        0.00000
 BRILLOUIN|   163           0.00347       -0.22917        0.27083        0.00000
 BRILLOUIN|   164           0.00347       -0.22917        0.31250        0.00000
 BRILLOUIN|   165           0.00347       -0.22917        0.35417        0.00000
 BRILLOUIN|   166           0.00347       -0.22917        0.39583        0.00000
 BRILLOUIN|   167           0.00347       -0.22917        0.43750        0.00000
 BRILLOUIN|   168           0.00347       -0.22917        0.47917        0.00000
 BRILLOUIN|   169           0.00347       -0.18750       -0.47917        0.00000
 BRILLOUIN|   170           0.00347       -0.18750       -0.43750        0.00000
 BRILLOUIN|   171           0.00347       -0.18750       -0.39583        0.00000
 BRILLOUIN|   172           0.00347       -0.18750       -0.35417        0.00000
 BRILLOUIN|   173           0.00347       -0.18750       -0.31250        0.00000
 BRILLOUIN|   174           0.00347       -0.18750       -0.27083        0.00000
 BRILLOUIN|   175           0.00347       -0.18750       -0.22917        0.00000
 BRILLOUIN|   176           0.00347       -0.18750       -0.18750        0.00000
 BRILLOUIN|   177           0.00347       -0.18750       -0.14583        0.00000
 BRILLOUIN|   178           0.00347       -0.18750       -0.10417        0.00000
 BRILLOUIN|   179           0.00347       -0.18750       -0.06250        0.00000
 BRILLOUIN|   180           0.00347       -0.18750       -0.02083        0.00000
 BRILLOUIN|   181           0.00347       -0.18750        0.02083        0.00000
 BRILLOUIN|   182           0.00347       -0.18750        0.06250        0.00000
 BRILLOUIN|   183           0.00347       -0.18750        0.10417        0.00000
 BRILLOUIN|   184           0.00347       -0.18750        0.14583        0.00000
 BRILLOUIN|   185           0.00347       -0.18750        0.18750        0.00000
 BRILLOUIN|   186           0.00347       -0.18750        0.22917        0.00000
 BRILLOUIN|   187           0.00347       -0.18750        0.27083        0.00000
 BRILLOUIN|   188           0.00347       -0.18750        0.31250        0.00000
 BRILLOUIN|   189           0.00347       -0.18750        0.35417        0.00000
 BRILLOUIN|   190           0.00347       -0.18750        0.39583        0.00000
 BRILLOUIN|   191           0.00347       -0.18750        0.43750        0.00000
 BRILLOUIN|   192           0.00347       -0.18750        0.47917        0.00000
 BRILLOUIN|   193           0.00347       -0.14583       -0.47917        0.00000
 BRILLOUIN|   194           0.00347       -0.14583       -0.43750        0.00000
 BRILLOUIN|   195           0.00347       -0.14583       -0.39583        0.00000
 BRILLOUIN|   196           0.00347       -0.14583       -0.35417        0.00000
 BRILLOUIN|   197           0.00347       -0.14583       -0.31250        0.00000
 BRILLOUIN|   198           0.00347       -0.14583       -0.27083        0.00000
 BRILLOUIN|   199           0.00347       -0.14583       -0.22917        0.00000
 BRILLOUIN|   200           0.00347       -0.14583       -0.18750        0.00000
 BRILLOUIN|   201           0.00347       -0.14583       -0.14583        0.00000
 BRILLOUIN|   202           0.00347       -0.14583       -0.10417        0.00000
 BRILLOUIN|   203           0.00347       -0.14583       -0.06250        0.00000
 BRILLOUIN|   204           0.00347       -0.14583       -0.02083        0.00000
 BRILLOUIN|   205           0.00347       -0.14583        0.02083        0.00000
 BRILLOUIN|   206           0.00347       -0.14583        0.06250        0.00000
 BRILLOUIN|   207           0.00347       -0.14583        0.10417        0.00000
 BRILLOUIN|   208           0.00347       -0.14583        0.14583        0.00000
 BRILLOUIN|   209           0.00347       -0.14583        0.18750        0.00000
 BRILLOUIN|   210           0.00347       -0.14583        0.22917        0.00000
 BRILLOUIN|   211           0.00347       -0.14583        0.27083        0.00000
 BRILLOUIN|   212           0.00347       -0.14583        0.31250        0.00000
 BRILLOUIN|   213           0.00347       -0.14583        0.35417        0.00000
 BRILLOUIN|   214           0.00347       -0.14583        0.39583        0.00000
 BRILLOUIN|   215           0.00347       -0.14583        0.43750        0.00000
 BRILLOUIN|   216           0.00347       -0.14583        0.47917        0.00000
 BRILLOUIN|   217           0.00347       -0.10417       -0.47917        0.00000
 BRILLOUIN|   218           0.00347       -0.10417       -0.43750        0.00000
 BRILLOUIN|   219           0.00347       -0.10417       -0.39583        0.00000
 BRILLOUIN|   220           0.00347       -0.10417       -0.35417        0.00000
 BRILLOUIN|   221           0.00347       -0.10417       -0.31250        0.00000
 BRILLOUIN|   222           0.00347       -0.10417       -0.27083        0.00000
 BRILLOUIN|   223           0.00347       -0.10417       -0.22917        0.00000
 BRILLOUIN|   224           0.00347       -0.10417       -0.18750        0.00000
 BRILLOUIN|   225           0.00347       -0.10417       -0.14583        0.00000
 BRILLOUIN|   226           0.00347       -0.10417       -0.10417        0.00000
 BRILLOUIN|   227           0.00347       -0.10417       -0.06250        0.00000
 BRILLOUIN|   228           0.00347       -0.10417       -0.02083        0.00000
 BRILLOUIN|   229           0.00347       -0.10417        0.02083        0.00000
 BRILLOUIN|   230           0.00347       -0.10417        0.06250        0.00000
 BRILLOUIN|   231           0.00347       -0.10417        0.10417        0.00000
 BRILLOUIN|   232           0.00347       -0.10417        0.14583        0.00000
 BRILLOUIN|   233           0.00347       -0.10417        0.18750        0.00000
 BRILLOUIN|   234           0.00347       -0.10417        0.22917        0.00000
 BRILLOUIN|   235           0.00347       -0.10417        0.27083        0.00000
 BRILLOUIN|   236           0.00347       -0.10417        0.31250        0.00000
 BRILLOUIN|   237           0.00347       -0.10417        0.35417        0.00000
 BRILLOUIN|   238           0.00347       -0.10417        0.39583        0.00000
 BRILLOUIN|   239           0.00347       -0.10417        0.43750        0.00000
 BRILLOUIN|   240           0.00347       -0.10417        0.47917        0.00000
 BRILLOUIN|   241           0.00347       -0.06250       -0.47917        0.00000
 BRILLOUIN|   242           0.00347       -0.06250       -0.43750        0.00000
 BRILLOUIN|   243           0.00347       -0.06250       -0.39583        0.00000
 BRILLOUIN|   244           0.00347       -0.06250       -0.35417        0.00000
 BRILLOUIN|   245           0.00347       -0.06250       -0.31250        0.00000
 BRILLOUIN|   246           0.00347       -0.06250       -0.27083        0.00000
 BRILLOUIN|   247           0.00347       -0.06250       -0.22917        0.00000
 BRILLOUIN|   248           0.00347       -0.06250       -0.18750        0.00000
 BRILLOUIN|   249           0.00347       -0.06250       -0.14583        0.00000
 BRILLOUIN|   250           0.00347       -0.06250       -0.10417        0.00000
 BRILLOUIN|   251           0.00347       -0.06250       -0.06250        0.00000
 BRILLOUIN|   252           0.00347       -0.06250       -0.02083        0.00000
 BRILLOUIN|   253           0.00347       -0.06250        0.02083        0.00000
 BRILLOUIN|   254           0.00347       -0.06250        0.06250        0.00000
 BRILLOUIN|   255           0.00347       -0.06250        0.10417        0.00000
 BRILLOUIN|   256           0.00347       -0.06250        0.14583        0.00000
 BRILLOUIN|   257           0.00347       -0.06250        0.18750        0.00000
 BRILLOUIN|   258           0.00347       -0.06250        0.22917        0.00000
 BRILLOUIN|   259           0.00347       -0.06250        0.27083        0.00000
 BRILLOUIN|   260           0.00347       -0.06250        0.31250        0.00000
 BRILLOUIN|   261           0.00347       -0.06250        0.35417        0.00000
 BRILLOUIN|   262           0.00347       -0.06250        0.39583        0.00000
 BRILLOUIN|   263           0.00347       -0.06250        0.43750        0.00000
 BRILLOUIN|   264           0.00347       -0.06250        0.47917        0.00000
 BRILLOUIN|   265           0.00347       -0.02083       -0.47917        0.00000
 BRILLOUIN|   266           0.00347       -0.02083       -0.43750        0.00000
 BRILLOUIN|   267           0.00347       -0.02083       -0.39583        0.00000
 BRILLOUIN|   268           0.00347       -0.02083       -0.35417        0.00000
 BRILLOUIN|   269           0.00347       -0.02083       -0.31250        0.00000
 BRILLOUIN|   270           0.00347       -0.02083       -0.27083        0.00000
 BRILLOUIN|   271           0.00347       -0.02083       -0.22917        0.00000
 BRILLOUIN|   272           0.00347       -0.02083       -0.18750        0.00000
 BRILLOUIN|   273           0.00347       -0.02083       -0.14583        0.00000
 BRILLOUIN|   274           0.00347       -0.02083       -0.10417        0.00000
 BRILLOUIN|   275           0.00347       -0.02083       -0.06250        0.00000
 BRILLOUIN|   276           0.00347       -0.02083       -0.02083        0.00000
 BRILLOUIN|   277           0.00347       -0.02083        0.02083        0.00000
 BRILLOUIN|   278           0.00347       -0.02083        0.06250        0.00000
 BRILLOUIN|   279           0.00347       -0.02083        0.10417        0.00000
 BRILLOUIN|   280           0.00347       -0.02083        0.14583        0.00000
 BRILLOUIN|   281           0.00347       -0.02083        0.18750        0.00000
 BRILLOUIN|   282           0.00347       -0.02083        0.22917        0.00000
 BRILLOUIN|   283           0.00347       -0.02083        0.27083        0.00000
 BRILLOUIN|   284           0.00347       -0.02083        0.31250        0.00000
 BRILLOUIN|   285           0.00347       -0.02083        0.35417        0.00000
 BRILLOUIN|   286           0.00347       -0.02083        0.39583        0.00000
 BRILLOUIN|   287           0.00347       -0.02083        0.43750        0.00000
 BRILLOUIN|   288           0.00347       -0.02083        0.47917        0.00000
 *******************************************************************************

 *******************************************************************************
 *******************************************************************************
 **                                                                           **
 **     #####                         ##              ##                      **
 **    ##   ##            ##          ##              ##                      **
 **   ##     ##                       ##            ######                    **
 **   ##     ##  ##   ##  ##   #####  ##  ##   ####   ##    #####    #####    **
 **   ##     ##  ##   ##  ##  ##      ## ##   ##      ##   ##   ##  ##   ##   **
 **   ##  ## ##  ##   ##  ##  ##      ####     ###    ##   ######   ######    **
 **    ##  ###   ##   ##  ##  ##      ## ##      ##   ##   ##       ##        **
 **     #######   #####   ##   #####  ##  ##  ####    ##    #####   ##        **
 **           ##                                                    ##        **
 **                                                                           **
 **                                                ... make the atoms dance   **
 **                                                                           **
 **            Copyright (C) by CP2K developers group (2000-2025)             **
 **                      J. Chem. Phys. 152, 194103 (2020)                    **
 **                                                                           **
 *******************************************************************************

 DFT| Spin restricted Kohn-Sham (RKS) calculation                            RKS
 DFT| Multiplicity                                                             1
 DFT| Number of spin states                                                    1
 DFT| Charge                                                                   0
 DFT| Self-interaction correction (SIC)                                       NO
 DFT| Cutoffs: density                                              1.000000E-10
 DFT|          gradient                                             1.000000E-10
 DFT|          tau                                                  1.000000E-10
 DFT|          cutoff_smoothing_range                               0.000000E+00
 DFT| XC density smoothing                                                  NONE
 DFT| XC derivatives                                                          PW

 FUNCTIONAL| PBE:
 FUNCTIONAL| J.P.Perdew, K.Burke, M.Ernzerhof, Phys. Rev. Letter, vol. 77, n 18,
 FUNCTIONAL|  pp. 3865-3868, (1996) {spin unpolarized}                          


 QS| Method:                                                                GAPW
 QS| Density plane wave grid type                        NON-SPHERICAL FULLSPACE
 QS| Number of grid levels:                                                    4
 QS| Density cutoff [a.u.]:                                                250.0
 QS| Multi grid cutoff [a.u.]: 1) grid level                               250.0
 QS|                           2) grid level                                83.3
 QS|                           3) grid level                                27.8
 QS|                           4) grid level                                 9.3
 QS| Grid level progression factor:                                          3.0
 QS| Relative density cutoff [a.u.]:                                        50.0
 QS| Interaction thresholds: eps_pgf_orb:                                1.0E-12
 QS|                         eps_filter_matrix:                          0.0E+00
 QS|                         eps_core_charge:                            1.0E-14
 QS|                         eps_rho_gspace:                             1.0E-12
 QS|                         eps_rho_rspace:                             1.0E-12
 QS|                         eps_gvg_rspace:                             1.0E-06
 QS|                         eps_ppl:                                    1.0E-02
 QS|                         eps_ppnl:                                   1.0E-08
 QS| GAPW|      One center basis from orbital basis primitives
 QS| GAPW|                   eps_fit:                                    1.0E-04
 QS| GAPW|                   eps_iso:                                    1.0E-12
 QS| GAPW|                   eps_svd:                                    1.0E-08
 QS| GAPW|                   eps_cpc:                                    1.0E-12
 QS| GAPW|   atom-r-grid: quadrature:                                     GC_LOG
 QS| GAPW|      atom-s-grid:  max l :                                          6
 QS| GAPW|      max_l_rho0 :                                                   2
 QS| GAPW|      At least one kind is NOT PAW, i.e. it has only soft AO 
 QS| GAPW|      The NOT PAW atoms are treated fully GPW


 ATOMIC KIND INFORMATION

  1. Atomic kind: W                                     Number of atoms:       1

     Orbital Basis Set                                        aug-SZV-MOLOPT-GTH

       Number of orbital shell sets:                                           1
       Number of orbital shells:                                               8
       Number of primitive Cartesian functions:                                6
       Number of Cartesian basis functions:                                   31
       Number of spherical basis functions:                                   26
       Norm type:                                                              2

       Normalised Cartesian orbitals:

                        Set   Shell   Orbital            Exponent    Coefficient

                          1       1    2s                0.074662      -0.014288
                                                         0.214446      -0.013622
                                                         0.501100      -0.158409
                                                         1.106150      -0.674409
                                                         2.893835       0.343542
                                                         3.103253       0.529378

                          1       2    3s                0.074662       0.097559
                                                         0.214446       0.068377
                                                         0.501100      -0.211692
                                                         1.106150      -0.477565
                                                         2.893835       0.569551
                                                         3.103253      -0.097470

                          1       3    4s                0.074662       0.110154
                                                         0.214446       0.032057
                                                         0.501100      -0.205812
                                                         1.106150       0.074053
                                                         2.893835       0.052359
                                                         3.103253       0.028561

                          1       4    3px               0.074662       0.000342
                                                         0.214446      -0.010443
                                                         0.501100      -0.267354
                                                         1.106150      -0.965857
                                                         2.893835      -5.556403
                                                         3.103253       6.695558
                          1       4    3py               0.074662       0.000342
                                                         0.214446      -0.010443
                                                         0.501100      -0.267354
                                                         1.106150      -0.965857
                                                         2.893835      -5.556403
                                                         3.103253       6.695558
                          1       4    3pz               0.074662       0.000342
                                                         0.214446      -0.010443
                                                         0.501100      -0.267354
                                                         1.106150      -0.965857
                                                         2.893835      -5.556403
                                                         3.103253       6.695558

                          1       5    4px               0.074662      -0.025823
                                                         0.214446      -0.106983
                                                         0.501100      -0.110188
                                                         1.106150       0.090439
                                                         2.893835       0.313766
                                                         3.103253       0.343398
                          1       5    4py               0.074662      -0.025823
                                                         0.214446      -0.106983
                                                         0.501100      -0.110188
                                                         1.106150       0.090439
                                                         2.893835       0.313766
                                                         3.103253       0.343398
                          1       5    4pz               0.074662      -0.025823
                                                         0.214446      -0.106983
                                                         0.501100      -0.110188
                                                         1.106150       0.090439
                                                         2.893835       0.313766
                                                         3.103253       0.343398

                          1       6    4dx2              0.074662       0.002139
                                                         0.214446       0.042391
                                                         0.501100       0.198591
                                                         1.106150       0.570193
                                                         2.893835       1.052039
                                                         3.103253      -0.912703
                          1       6    4dxy              0.074662       0.003705
                                                         0.214446       0.073424
                                                         0.501100       0.343970
                                                         1.106150       0.987602
                                                         2.893835       1.822186
                                                         3.103253      -1.580848
                          1       6    4dxz              0.074662       0.003705
                                                         0.214446       0.073424
                                                         0.501100       0.343970
                                                         1.106150       0.987602
                                                         2.893835       1.822186
                                                         3.103253      -1.580848
                          1       6    4dy2              0.074662       0.002139
                                                         0.214446       0.042391
                                                         0.501100       0.198591
                                                         1.106150       0.570193
                                                         2.893835       1.052039
                                                         3.103253      -0.912703
                          1       6    4dyz              0.074662       0.003705
                                                         0.214446       0.073424
                                                         0.501100       0.343970
                                                         1.106150       0.987602
                                                         2.893835       1.822186
                                                         3.103253      -1.580848
                          1       6    4dz2              0.074662       0.002139
                                                         0.214446       0.042391
                                                         0.501100       0.198591
                                                         1.106150       0.570193
                                                         2.893835       1.052039
                                                         3.103253      -0.912703

                          1       7    5dx2              0.074662      -0.005539
                                                         0.214446      -0.055672
                                                         0.501100      -0.201982
                                                         1.106150       0.147656
                                                         2.893835       0.458842
                                                         3.103253       0.902631
                          1       7    5dxy              0.074662      -0.009594
                                                         0.214446      -0.096427
                                                         0.501100      -0.349843
                                                         1.106150       0.255748
                                                         2.893835       0.794738
                                                         3.103253       1.563402
                          1       7    5dxz              0.074662      -0.009594
                                                         0.214446      -0.096427
                                                         0.501100      -0.349843
                                                         1.106150       0.255748
                                                         2.893835       0.794738
                                                         3.103253       1.563402
                          1       7    5dy2              0.074662      -0.005539
                                                         0.214446      -0.055672
                                                         0.501100      -0.201982
                                                         1.106150       0.147656
                                                         2.893835       0.458842
                                                         3.103253       0.902631
                          1       7    5dyz              0.074662      -0.009594
                                                         0.214446      -0.096427
                                                         0.501100      -0.349843
                                                         1.106150       0.255748
                                                         2.893835       0.794738
                                                         3.103253       1.563402
                          1       7    5dz2              0.074662      -0.005539
                                                         0.214446      -0.055672
                                                         0.501100      -0.201982
                                                         1.106150       0.147656
                                                         2.893835       0.458842
                                                         3.103253       0.902631

                          1       8    5fx3              0.074662       0.000325
                                                         0.214446       0.032337
                                                         0.501100       0.095319
                                                         1.106150       0.075344
                                                         2.893835       0.567697
                                                         3.103253       0.419733
                          1       8    5fx2y             0.074662       0.000727
                                                         0.214446       0.072308
                                                         0.501100       0.213140
                                                         1.106150       0.168474
                                                         2.893835       1.269409
                                                         3.103253       0.938552
                          1       8    5fx2z             0.074662       0.000727
                                                         0.214446       0.072308
                                                         0.501100       0.213140
                                                         1.106150       0.168474
                                                         2.893835       1.269409
                                                         3.103253       0.938552
                          1       8    5fxy2             0.074662       0.000727
                                                         0.214446       0.072308
                                                         0.501100       0.213140
                                                         1.106150       0.168474
                                                         2.893835       1.269409
                                                         3.103253       0.938552
                          1       8    5fxyz             0.074662       0.001260
                                                         0.214446       0.125240
                                                         0.501100       0.369169
                                                         1.106150       0.291805
                                                         2.893835       2.198681
                                                         3.103253       1.625620
                          1       8    5fxz2             0.074662       0.000727
                                                         0.214446       0.072308
                                                         0.501100       0.213140
                                                         1.106150       0.168474
                                                         2.893835       1.269409
                                                         3.103253       0.938552
                          1       8    5fy3              0.074662       0.000325
                                                         0.214446       0.032337
                                                         0.501100       0.095319
                                                         1.106150       0.075344
                                                         2.893835       0.567697
                                                         3.103253       0.419733
                          1       8    5fy2z             0.074662       0.000727
                                                         0.214446       0.072308
                                                         0.501100       0.213140
                                                         1.106150       0.168474
                                                         2.893835       1.269409
                                                         3.103253       0.938552
                          1       8    5fyz2             0.074662       0.000727
                                                         0.214446       0.072308
                                                         0.501100       0.213140
                                                         1.106150       0.168474
                                                         2.893835       1.269409
                                                         3.103253       0.938552
                          1       8    5fz3              0.074662       0.000325
                                                         0.214446       0.032337
                                                         0.501100       0.095319
                                                         1.106150       0.075344
                                                         2.893835       0.567697
                                                         3.103253       0.419733

     RI Auxiliary Basis Set             RI_aug-SZV-MOLOPT-GTH_N_RI_076_s_p_d_f_g

       Number of orbital shell sets:                                          18
       Number of orbital shells:                                              18
       Number of primitive Cartesian functions:                               18
       Number of Cartesian basis functions:                                  107
       Number of spherical basis functions:                                   76
       Norm type:                                                              2

       Normalised Cartesian orbitals:

                        Set   Shell   Orbital            Exponent    Coefficient

                          1       1    1s                0.189053       0.204337

                          2       1    7px               0.264845       0.270819
                          2       1    7py               0.264845       0.270819
                          2       1    7pz               0.264845       0.270819

                          3       1   11dx2              0.294055       0.193268
                          3       1   11dxy              0.294055       0.334750
                          3       1   11dxz              0.294055       0.334750
                          3       1   11dy2              0.294055       0.193268
                          3       1   11dyz              0.294055       0.334750
                          3       1   11dz2              0.294055       0.193268

                          4       1   16gx4              0.336043       0.055465
                          4       1   16gx3y             0.336043       0.146747
                          4       1   16gx3z             0.336043       0.146747
                          4       1   16gx2y2            0.336043       0.189449
                          4       1   16gx2yz            0.336043       0.328136
                          4       1   16gx2z2            0.336043       0.189449
                          4       1   16gxy3             0.336043       0.146747
                          4       1   16gxy2z            0.336043       0.328136
                          4       1   16gxyz2            0.336043       0.328136
                          4       1   16gxz3             0.336043       0.146747
                          4       1   16gy4              0.336043       0.055465
                          4       1   16gy3z             0.336043       0.146747
                          4       1   16gy2z2            0.336043       0.189449
                          4       1   16gyz3             0.336043       0.146747
                          4       1   16gz4              0.336043       0.055465

                          5       1    2s                0.362163       0.332727

                          6       1   14fx3              0.426326       0.216209
                          6       1   14fx2y             0.426326       0.483457
                          6       1   14fx2z             0.426326       0.483457
                          6       1   14fxy2             0.426326       0.483457
                          6       1   14fxyz             0.426326       0.837372
                          6       1   14fxz2             0.426326       0.483457
                          6       1   14fy3              0.426326       0.216209
                          6       1   14fy2z             0.426326       0.483457
                          6       1   14fyz2             0.426326       0.483457
                          6       1   14fz3              0.426326       0.216209

                          7       1   18hx5              0.587886       0.131992
                          7       1   18hx4y             0.587886       0.395975
                          7       1   18hx4z             0.587886       0.395975
                          7       1   18hx3y2            0.587886       0.604862
                          7       1   18hx3yz            0.587886       1.047651
                          7       1   18hx3z2            0.587886       0.604862
                          7       1   18hx2y3            0.587886       0.604862
                          7       1   18hx2y2z           0.587886       1.352512
                          7       1   18hx2yz2           0.587886       1.352512
                          7       1   18hx2z3            0.587886       0.604862
                          7       1   18hxy4             0.587886       0.395975
                          7       1   18hxy3z            0.587886       1.047651
                          7       1   18hxy2z2           0.587886       1.352512
                          7       1   18hxyz3            0.587886       1.047651
                          7       1   18hxz4             0.587886       0.395975
                          7       1   18hy5              0.587886       0.131992
                          7       1   18hy4z             0.587886       0.395975
                          7       1   18hy3z2            0.587886       0.604862
                          7       1   18hy2z3            0.587886       0.604862
                          7       1   18hyz4             0.587886       0.395975
                          7       1   18hz5              0.587886       0.131992

                          8       1    8px               0.682676       0.884522
                          8       1    8py               0.682676       0.884522
                          8       1    8pz               0.682676       0.884522

                          9       1    3s                0.703338       0.547372

                         10       1   12dx2              0.951478       1.508716
                         10       1   12dxy              0.951478       2.613172
                         10       1   12dxz              0.951478       2.613172
                         10       1   12dy2              0.951478       1.508716
                         10       1   12dyz              0.951478       2.613172
                         10       1   12dz2              0.951478       1.508716

                         11       1    4s                1.374073       0.904518

                         12       1    9px               1.433082       2.235007
                         12       1    9py               1.433082       2.235007
                         12       1    9pz               1.433082       2.235007

                         13       1   17gx4              1.644487       4.370379
                         13       1   17gx3y             1.644487      11.562936
                         13       1   17gx3z             1.644487      11.562936
                         13       1   17gx2y2            1.644487      14.927687
                         13       1   17gx2yz            1.644487      25.855512
                         13       1   17gx2z2            1.644487      14.927687
                         13       1   17gxy3             1.644487      11.562936
                         13       1   17gxy2z            1.644487      25.855512
                         13       1   17gxyz2            1.644487      25.855512
                         13       1   17gxz3             1.644487      11.562936
                         13       1   17gy4              1.644487       4.370379
                         13       1   17gy3z             1.644487      11.562936
                         13       1   17gy2z2            1.644487      14.927687
                         13       1   17gyz3             1.644487      11.562936
                         13       1   17gz4              1.644487       4.370379

                         14       1   13dx2              1.953966       5.315134
                         14       1   13dxy              1.953966       9.206082
                         14       1   13dxz              1.953966       9.206082
                         14       1   13dy2              1.953966       5.315134
                         14       1   13dyz              1.953966       9.206082
                         14       1   13dz2              1.953966       5.315134

                         15       1   15fx3              1.985402       6.888323
                         15       1   15fx2y             1.985402      15.402759
                         15       1   15fx2z             1.985402      15.402759
                         15       1   15fxy2             1.985402      15.402759
                         15       1   15fxyz             1.985402      26.678360
                         15       1   15fxz2             1.985402      15.402759
                         15       1   15fy3              1.985402       6.888323
                         15       1   15fy2z             1.985402      15.402759
                         15       1   15fyz2             1.985402      15.402759
                         15       1   15fz3              1.985402       6.888323

                         16       1    5s                2.669436       1.488417

                         17       1   10px               3.574197       7.005080
                         17       1   10py               3.574197       7.005080
                         17       1   10pz               3.574197       7.005080

                         18       1    6s                5.178021       2.446431

       Atomic covalent radius [Angstrom]:                                  1.300

       Atomic van der Waals radius [Angstrom]:                             1.670

     GTH Potential information for                                   GTH-PBE-q14

       Description:                       Goedecker-Teter-Hutter pseudopotential
                                           Goedecker et al., PRB 54, 1703 (1996)
                                          Hartwigsen et al., PRB 58, 3641 (1998)
                                                      Krack, TCA 114, 145 (2005)

       Gaussian exponent of the core charge distribution:               1.714678
       Electronic configuration (s p d ...):                           4   6   4

       Parameters of the local part of the GTH pseudopotential:

                          rloc        C1          C2          C3          C4
                        0.540000   13.414811   -2.213456

       Parameters of the non-local part of the GTH (SOC) pseudopotential:

                   l      r(l)      h(i,j,l)
                                    k(i,j,l)
                   0    0.397028   -4.141211    3.835423    2.233179
                                    3.835423   -1.319244   -5.766044
                                    2.233179   -5.766044    4.576656
                   1    0.353531   -7.456236    8.112326    0.000000
                                    8.112326   -9.598634    0.000000
                                    0.000000    0.000000    0.000000
                                    1.424856   -0.047910   -0.233482
                                   -0.047910   -0.332024    0.552519
                                   -0.233482    0.552519   -0.392678
                   2    0.412107   -0.954661   -1.067446
                                   -1.067446    1.210370
                                    0.070160    0.013189
                                    0.013189   -0.014954

  2. Atomic kind: Se                                    Number of atoms:       2

     Orbital Basis Set                                        aug-SZV-MOLOPT-GTH

       Number of orbital shell sets:                                           1
       Number of orbital shells:                                               5
       Number of primitive Cartesian functions:                                5
       Number of Cartesian basis functions:                                   14
       Number of spherical basis functions:                                   13
       Norm type:                                                              2

       Normalised Cartesian orbitals:

                        Set   Shell   Orbital            Exponent    Coefficient

                          1       1    2s                0.107173      -0.034327
                                                         0.180000       0.000000
                                                         0.303575      -0.265065
                                                         1.029752      -0.111246
                                                         1.465689       0.426297

                          1       2    3s                0.107173      -0.272396
                                                         0.180000       0.299701
                                                         0.303575       0.034689
                                                         1.029752       0.278692
                                                         1.465689       0.206176

                          1       3    3px               0.107173      -0.032222
                                                         0.180000       0.000000
                                                         0.303575      -0.202949
                                                         1.029752      -0.499569
                                                         1.465689       0.672772
                          1       3    3py               0.107173      -0.032222
                                                         0.180000       0.000000
                                                         0.303575      -0.202949
                                                         1.029752      -0.499569
                                                         1.465689       0.672772
                          1       3    3pz               0.107173      -0.032222
                                                         0.180000       0.000000
                                                         0.303575      -0.202949
                                                         1.029752      -0.499569
                                                         1.465689       0.672772

                          1       4    4px               0.107173       0.171758
                                                         0.180000      -0.193480
                                                         0.303575      -0.006803
                                                         1.029752      -0.001006
                                                         1.465689       0.069700
                          1       4    4py               0.107173       0.171758
                                                         0.180000      -0.193480
                                                         0.303575      -0.006803
                                                         1.029752      -0.001006
                                                         1.465689       0.069700
                          1       4    4pz               0.107173       0.171758
                                                         0.180000      -0.193480
                                                         0.303575      -0.006803
                                                         1.029752      -0.001006
                                                         1.465689       0.069700

                          1       5    4dx2              0.107173       0.006127
                                                         0.180000       0.067129
                                                         0.303575      -0.000353
                                                         1.029752       0.023622
                                                         1.465689       0.137670
                          1       5    4dxy              0.107173       0.010612
                                                         0.180000       0.116271
                                                         0.303575      -0.000611
                                                         1.029752       0.040914
                                                         1.465689       0.238451
                          1       5    4dxz              0.107173       0.010612
                                                         0.180000       0.116271
                                                         0.303575      -0.000611
                                                         1.029752       0.040914
                                                         1.465689       0.238451
                          1       5    4dy2              0.107173       0.006127
                                                         0.180000       0.067129
                                                         0.303575      -0.000353
                                                         1.029752       0.023622
                                                         1.465689       0.137670
                          1       5    4dyz              0.107173       0.010612
                                                         0.180000       0.116271
                                                         0.303575      -0.000611
                                                         1.029752       0.040914
                                                         1.465689       0.238451
                          1       5    4dz2              0.107173       0.006127
                                                         0.180000       0.067129
                                                         0.303575      -0.000353
                                                         1.029752       0.023622
                                                         1.465689       0.137670

     RI Auxiliary Basis Set             RI_aug-SZV-MOLOPT-GTH_N_RI_027_s_p_d_f_g

       Number of orbital shell sets:                                           9
       Number of orbital shells:                                               9
       Number of primitive Cartesian functions:                                9
       Number of Cartesian basis functions:                                   32
       Number of spherical basis functions:                                   27
       Norm type:                                                              2

       Normalised Cartesian orbitals:

                        Set   Shell   Orbital            Exponent    Coefficient

                          1       1    1s                0.157212       0.177940

                          2       1    7dx2              0.234787       0.130343
                          2       1    7dxy              0.234787       0.225761
                          2       1    7dxz              0.234787       0.225761
                          2       1    7dy2              0.234787       0.130343
                          2       1    7dyz              0.234787       0.225761
                          2       1    7dz2              0.234787       0.130343

                          3       1    5px               0.309141       0.328576
                          3       1    5py               0.309141       0.328576
                          3       1    5pz               0.309141       0.328576

                          4       1    9fx3              0.383083       0.169966
                          4       1    9fx2y             0.383083       0.380056
                          4       1    9fx2z             0.383083       0.380056
                          4       1    9fxy2             0.383083       0.380056
                          4       1    9fxyz             0.383083       0.658277
                          4       1    9fxz2             0.383083       0.380056
                          4       1    9fy3              0.383083       0.169966
                          4       1    9fy2z             0.383083       0.380056
                          4       1    9fyz2             0.383083       0.380056
                          4       1    9fz3              0.383083       0.169966

                          5       1    2s                0.389609       0.351465

                          6       1    6px               0.423194       0.486535
                          6       1    6py               0.423194       0.486535
                          6       1    6pz               0.423194       0.486535

                          7       1    8dx2              0.545077       0.569129
                          7       1    8dxy              0.545077       0.985760
                          7       1    8dxz              0.545077       0.985760
                          7       1    8dy2              0.545077       0.569129
                          7       1    8dyz              0.545077       0.985760
                          7       1    8dz2              0.545077       0.569129

                          8       1    3s                0.974986       0.699292

                          9       1    4s                2.266894       1.316690

       Atomic covalent radius [Angstrom]:                                  1.160

       Atomic van der Waals radius [Angstrom]:                             1.900

     GTH Potential information for                                    GTH-PBE-q6

       Description:                       Goedecker-Teter-Hutter pseudopotential
                                           Goedecker et al., PRB 54, 1703 (1996)
                                          Hartwigsen et al., PRB 58, 3641 (1998)
                                                      Krack, TCA 114, 145 (2005)

       Gaussian exponent of the core charge distribution:               1.922338
       Electronic configuration (s p d ...):                               2   4

       Parameters of the local part of the GTH pseudopotential:

                          rloc        C1          C2          C3          C4
                        0.510000

       Parameters of the non-local part of the GTH (SOC) pseudopotential:

                   l      r(l)      h(i,j,l)
                                    k(i,j,l)
                   0    0.432460    6.518110   -0.222716   -1.196129
                                   -0.222716   -1.657978    3.088392
                                   -1.196129    3.088392   -2.451335
                   1    0.470492    2.281262    0.365335
                                    0.365335   -0.432271
                                    0.153868   -0.095088
                                   -0.095088    0.112509
                   2    0.625600    0.439799
                                    0.004892


 MOLECULE KIND INFORMATION


 All atoms are their own molecule, skipping detailed information


 TOTAL NUMBERS AND MAXIMUM NUMBERS

  Total number of            - Atomic kinds:                                   2
                             - Atoms:                                          3
                             - Shell sets:                                     3
                             - Shells:                                        18
                             - Primitive Cartesian functions:                 16
                             - Cartesian basis functions:                     59
                             - Spherical basis functions:                     52

  Maximum angular momentum of- Orbital basis functions:                        3
                             - Local part of the GTH pseudopotential:          2
                             - Non-local part of the GTH pseudopotential:      5


 MODULE QUICKSTEP: ATOMIC COORDINATES IN ANGSTROM

   Atom Kind Element         X             Y             Z       Z(eff)     Mass
      1    1 W    74      0.000000      0.000000      2.179276  14.0000 183.8400
      2    2 Se   34      1.659503      0.958115      3.858553   6.0000  78.9600
      3    2 Se   34      1.659503      0.958115      0.500000   6.0000  78.9600



 SCF PARAMETERS         Density guess:                                    ATOMIC
                        --------------------------------------------------------
                        max_scf:                                             500
                        max_scf_history:                                       0
                        max_diis:                                              4
                        --------------------------------------------------------
                        eps_scf:                                        1.00E-09
                        eps_scf_history:                                0.00E+00
                        eps_diis:                                       1.00E-01
                        eps_eigval:                                     1.00E-05
                        --------------------------------------------------------
                        level_shift [a.u.]:                             0.000000
                        added MOs                                        39    0
                        --------------------------------------------------------
                        Mixing method:                            BROYDEN_MIXING
                                                charge density mixing in g-space
                        --------------------------------------------------------
                        No outer SCF

 PW_GRID| Information for grid number                                          1
 PW_GRID| Cutoff [a.u.]                                                    250.0
 PW_GRID| spherical cutoff:                                                   NO
 PW_GRID|   Bounds   1            -22      22                Points:          45
 PW_GRID|   Bounds   2            -22      22                Points:          45
 PW_GRID|   Bounds   3           -108     107                Points:         216
 PW_GRID| Volume element (a.u.^3)  0.2208E-02     Volume (a.u.^3)       965.6795
 PW_GRID| Grid span                                                    FULLSPACE

 PW_GRID| Information for grid number                                          2
 PW_GRID| Number of the reference grid                                         1
 PW_GRID| Cutoff [a.u.]                                                     83.3
 PW_GRID| spherical cutoff:                                                   NO
 PW_GRID|   Bounds   1            -12      12                Points:          25
[...]
 -                                                                             -
 -                                DBM STATISTICS                               -
 -                                                                             -
 -------------------------------------------------------------------------------
    M  x    N  x    K                                          COUNT     PERCENT
    ?  x    ?  x    ?                                      615694205      49.62%
  ???  x   ??  x   ??                                      408137339      32.89%
   ??  x   ??  x  ???                                      165332595      13.33%
 >999  x   ??  x   ??                                       43758817       3.53%
   ??  x   ??  x >999                                        7804755       0.63%
 -------------------------------------------------------------------------------
 Memory consumption                Number of allocations  Used [MiB]  Size [MiB]
 Host                                         1738396708           0           0
 -------------------------------------------------------------------------------

 -------------------------------------------------------------------------------
 -                                                                             -
 -                                GRID STATISTICS                              -
 -                                                                             -
 -------------------------------------------------------------------------------
 LP    KERNEL             BACKEND                              COUNT     PERCENT
 4     integrate general  CPU                                  89535      22.33%
 4     collocate general  CPU                                  85725      21.38%
 5     integrate general  CPU                                  71628      17.86%
 5     collocate general  CPU                                  68580      17.10%
 6     integrate general  CPU                                  43710      10.90%
 6     collocate general  CPU                                  41850      10.44%
 0     collocate general  CPU                                      6       0.00%
 0     integrate general  CPU                                      3       0.00%
 -------------------------------------------------------------------------------

 MEMORY| Estimated peak process memory [MiB]                               60461

 -------------------------------------------------------------------------------
 ----                             MULTIGRID INFO                            ----
 -------------------------------------------------------------------------------
 count for grid        1:          11606          cutoff [a.u.]          250.00
 count for grid        2:           9478          cutoff [a.u.]           83.33
 count for grid        3:           5967          cutoff [a.u.]           27.78
 count for grid        4:           1049          cutoff [a.u.]            9.26
 total gridlevel count  :          28100

 -------------------------------------------------------------------------------
 -                                                                             -
 -                           R E F E R E N C E S                               -
 -                                                                             -
 -------------------------------------------------------------------------------
 
 CP2K version 2025.1 (Development Version), the CP2K developers group (2025).
 CP2K is freely available from https://www.cp2k.org/ .
 
 M. Graml, K. Zollner, D. Hernangmez-Prez, P. E. Faria Junior, J. Wilhelm.
 J. Chem. Theory Comput. 20, 2202-2208 (2024).
 Low-scaling GW algorithm applied to twisted transition-metal dichalcogenide 
 heterobilayers.
 https://doi.org/10.1021/acs.jctc.3c01230

 T. D. Kuehne, M. Iannuzzi, M. Del Ben, V. V. Rybkin, P. Seewald, F. Stein, T. 
 Laino, R. Z. Khaliullin, O. Schuett, F. Schiffmann, D. Golze, J. Wilhelm, S. 
 Chulkov, M. H. Bani-Hashemian, V. Weber, U. Borstnik, M. Taillefumier, A. S. 
 Jakobovits, A. Lazzaro, H. Pabst, T. Mueller, R. Schade, M. Guidon, S. 
 Andermatt, N. Holmberg, G. K. Schenter, A. Hehn, A. Bussy, F. Belleflamme, G. 
 Tabacchi, A. Gloess, M. Lass, I. Bethune, C. J. Mundy, C. Plessl, M. Watkins, 
 J. VandeVondele, M. Krack, J. Hutter.
 J. Chem. Phys. 152, 194103 (2020).
 CP2K: An electronic structure and molecular dynamics software package - 
 Quickstep: Efficient and accurate electronic structure calculations.
 https://doi.org/10.1063/5.0007045

 A. Togo, I. Tanaka.
 arXiv, 1808.01590 (2018).
 Spglib : a software library for crystal symmetry search.

 O. Schuett, P. Messmer, J. Hutter, J. VandeVondele.
 Electronic Structure Calculations on Graphics Processing Units, 173-190 (2016).
 GPU-Accelerated Sparse Matrix-Matrix Multiplication for Linear Scaling Density 
 Functional Theory.
 https://doi.org/10.1002/9781118670712.ch8

 A. Heinecke, G. Henry, M. Hutchinson, H. Pabst.
 Proceedings of Intl. Supercomputing Conference, 981-991 (2016).
 LIBXSMM: Accelerating Small Matrix Multiplications by Runtime Code Generation.
 https://doi.org/10.1109/SC.2016.83

 J. Hutter, M. Iannuzzi, F. Schiffmann, J. VandeVondele.
 WIREs Comput Mol Sci. 4, 15-25 (2014).
 CP2K: atomistic simulations of condensed matter systems.
 https://doi.org/10.1002/wcms.1159

 U. Borstnik, J. VandeVondele, V. Weber, J. Hutter.
 Parallel Comput. 40, 47-58 (2014).
 Sparse matrix multiplication: The distributed block-compressed sparse row 
 library.
 https://doi.org/10.1016/j.parco.2014.03.012

 J. VandeVondele, J. Hutter.
 J. Chem. Phys. 127, 114105 (2007).
 Gaussian basis sets for accurate calculations on molecular systems in gas and 
 condensed phases.
 https://doi.org/10.1063/1.2770708

 M. Krack.
 Theor. Chem. Acc. 114, 145-152 (2005).
 Pseudopotentials for H to Kr optimized for gradient-corrected 
 exchange-correlation functionals.
 https://doi.org/10.1007/s00214-005-0655-y

 M. Frigo, S. G. Johnson.
 Proc. IEEE 93, 216-231 (2005).
 The design and implementation of FFTW3.
 https://doi.org/10.1109/JPROC.2004.840301

 M. Krack, M. Parrinello.
 Phys. Chem. Chem. Phys. 2, 2105-2112 (2000).
 All-electron ab-initio molecular dynamics.
 https://doi.org/10.1039/b001167n

 G. Lippert, J. Hutter, M. Parrinello.
 Theor. Chem. Acc. 103, 124-140 (1999).
 The Gaussian and augmented-plane-wave density functional method for ab initio 
 molecular dynamics simulations.
 https://doi.org/10.1007/s002140050523

 C. Hartwigsen, S. Goedecker, J. Hutter.
 Phys. Rev. B 58, 3641-3662 (1998).
 Relativistic separable dual-space Gaussian pseudopotentials from H to Rn.
 https://doi.org/10.1103/PhysRevB.58.3641

 S. Goedecker, M. Teter, J. Hutter.
 Phys. Rev. B 54, 1703-1710 (1996).
 Separable dual-space Gaussian pseudopotentials.
 https://doi.org/10.1103/PhysRevB.54.1703

 J. P. Perdew, K. Burke, M. Ernzerhof.
 Phys. Rev. Lett. 77, 3865-3868 (1996).
 Generalized gradient approximation made simple.
 https://doi.org/10.1103/PhysRevLett.77.3865


 -------------------------------------------------------------------------------
 -                                                                             -
 -                                T I M I N G                                  -
 -                                                                             -
 -------------------------------------------------------------------------------
 SUBROUTINE                       CALLS  ASD         SELF TIME        TOTAL TIME
                                MAXIMUM       AVERAGE  MAXIMUM  AVERAGE  MAXIMUM
 CP2K                                 1  1.0     0.02     0.02 55299.07 55299.07
 qs_energies                          1  2.0     0.00     0.00 55298.72 55298.72
 qs_energies_properties               1  3.0     0.00     0.00 55242.95 55242.95
 post_scf_bandstructure               1  4.0     0.00     0.00 55242.95 55242.95
 gw                                   1  5.0     0.00     0.00 55235.04 55235.04
 gw_calc_small_cell_full_kp           1  6.0     0.05     0.05 54896.92 54896.92
 dbt_total                      *******  9.6   150.73   150.73 52387.09 52387.09
 dbt_contract                   ******* 10.4   302.66   302.66 44015.29 44015.29
 dbt_tas_multiply               ******* 12.9    29.93    29.93 41120.04 41120.04
 dbt_tas_total                  ******* 13.9  1579.75  1579.75 41100.76 41100.76
 compute_Sigma_c                      1  7.0     0.04     0.04 29193.84 29193.84
 compute_chi                          1  7.0     1.13     1.13 21486.51 21486.51
 dbt_tas_dbm                    ******* 14.9    29.48    29.48 20753.50 20753.50
 dbm_multiply                   ******* 16.9 20678.19 20678.19 20678.19 20678.19
 contract_to_Sigma                 4637  8.0   345.52   345.52 16886.67 16886.67
 contract_W                        2537  8.0    39.14    39.14 15523.25 15523.25
 dbt_tas_estimate_result_nze    ******* 13.4  2930.76  2930.76 13490.35 13490.35
 contract_M_occ_vir_to_chi         2326  8.0   579.54   579.54 11281.40 11281.40
 contract_to_Sigma_3c_x_G       7917071  9.0    10.14    10.14 11013.50 11013.50
 G_times_3c                      230160  8.0    49.71    49.71 10176.12 10176.12
 dbt_copy                       ******* 10.9   299.56   299.56  9696.44  9696.44
 dbt_tas_mm_3T                  ******* 16.1    13.69    13.69  8648.29  8648.29
 dbt_tas_mm_2                   9071378 16.0    17.15    17.15  7589.92  7589.92
 dbt_reshape                    ******* 11.8  5728.62  5728.62  7269.40  7269.40
 contract_to_Sigma_contract      230161  9.0    50.02    50.02  5408.98  5408.98
 dbt_tas_reshape                ******* 15.4   324.40   324.40  4900.22  4900.22
 get_t_3c_int                   *******  9.4   191.28   191.28  4673.31  4673.31
 dbt_tas_mm_1N                  7663944 15.5     6.00     6.00  4480.17  4480.17
 reshape_mm_small               ******* 14.9  1052.88  1052.88  3486.42  3486.42
 compute_Sigma_x                      1  7.0     0.02     0.02  3259.48  3259.48
 convert_to_new_pgrid           ******* 14.9   841.75   841.75  2678.96  2678.96
 dbt_tas_reshape_buffer_fill    ******* 16.4  2188.13  2188.13  2188.13  2188.13
 dbm_reserve_blocks             ******* ****  2170.55  2170.55  2170.55  2170.55
 dbt_tas_replicate              ******* 14.9  1285.95  1285.95  2020.93  2020.93
 dbt_remap                      3103801 11.0   184.80   184.80  1927.63  1927.63
 dbt_tas_reserve_blocks_index   ******* 15.9    82.82    82.82  1887.07  1887.07
 dbm_copy                       ******* 15.9  1837.21  1837.21  1837.21  1837.21
 dbt_tas_reshape_buffer_obtain  ******* 16.4  1190.39  1190.39  1729.22  1729.22
 dbt_tas_create_new             ******* 15.3  1285.13  1285.13  1285.13  1285.13
 dbt_tas_copy                   ******* 12.4   836.70   836.70  1212.22  1212.22
 dbt_tas_reserve_blocks_templat ******* 14.1   409.50   409.50  1073.34  1073.34
 compute_W_real_space                 1  7.0     8.37     8.37   932.85   932.85
 reshape_mm_compatible          ******* 14.9   304.32   304.32   887.36   887.36
 dbt_communicate_buffer         ******* 12.8   884.80   884.80   884.80   884.80
 dbm_add                        ******* 14.9   844.58   844.58   844.58   844.58
 dbt_reserve_blocks_index_array ******* 12.8    25.28    25.28   763.76   763.76
 dbt_reserve_blocks_index       ******* 13.8    48.43    48.43   739.69   739.69
 dbt_copy_nocomm                2783909 11.0   549.91   549.91   703.88   703.88
 dbt_tas_merge                  9071378 15.0   531.66   531.66   686.54   686.54
 dbt_permute_index              ******* 12.2   542.97   542.97   608.41   608.41
 dbt_tas_create_split           ******* 16.0    50.69    50.69   532.22   532.22
 compute_Minv_and_Vsqrt               1  8.0     0.51     0.51   499.43   499.43
 dbt_align_index                ******* 11.4    64.24    64.24   484.12   484.12
 dbt_tas_create_split_rows_or_c ******* 17.0   166.44   166.44   481.53   481.53
 build_2c_coulomb_matrix_kp_sma       2  9.0     0.15     0.15   479.51   479.51
 build_2c_coulomb_matrix_kp_sma   23040 10.0   460.02   460.02   460.02   460.02
 dbm_filter                     ******* 14.9   442.05   442.05   442.05   442.05
 dbt_tas_distribution_new       ******* 15.8   238.55   238.55   424.51   424.51
 create_and_init_bs_env_for_gw        1  6.0     0.01     0.01   338.13   338.13
 change_split                   ******* 15.4    88.72    88.72   334.80   334.80
 dbt_tas_communicate_buffer     ******* 17.2   326.03   326.03   326.03   326.03
 dbt_tas_reshape_get_coord      ******* 16.4   312.91   312.91   312.91   312.91
 dbt_tas_reshape_communicate_bu ******* 16.4    22.18    22.18   302.52   302.52
 setup_cells_3c                       1  7.0     2.42     2.42   265.85   265.85
 build_3c_integral_block         256425  8.0   119.76   119.76   263.43   263.43
 dbm_scale                      ******* 14.4   232.55   232.55   232.55   232.55
 reshape_mm_template            6207602 15.5   133.09   133.09   225.89   225.89
 add_rs_to_ikp                  *******  9.6   203.27   203.27   203.27   203.27
 trafo_rs_to_ikp                  29952  8.5     5.14     5.14   190.33   190.33
 add_R                          ******* -0.7   132.67   132.67   178.87   178.87
 mp_cart_create                 ******* ****   132.48   132.48   175.64   175.64
 dbt_reserve_blocks_template    2783909 12.0    29.69    29.69   153.97   153.97
 add_ikp_to_rs                  *******  9.7   146.98   146.98   146.98   146.98
 abc_contract_xsmm              2613126  9.0   143.67   143.67   143.67   143.67
 power                            39456  8.2     7.47     7.47   142.73   142.73
 dbt_distribution_new_expert    6262628 12.5    65.32    65.32   138.92   138.92
 mult_W_with_Minv                    10  8.0     2.09     2.09   137.97   137.97
 dbt_destroy                    ******* 11.4   134.80   134.80   137.93   137.93
 diag_complex                     39456  9.2   135.26   135.26   135.26   135.26
 dbt_create_new                 3131314 12.0    41.05    41.05   134.34   134.34
 mp_cart_get                    *******  2.3   131.19   131.19   131.19   131.19
 add_ikp_to_all_rs                20736  8.3     3.30     3.30   128.40   128.40
 mp_comm_dup                    ******* 18.5    75.76    75.76   101.65   101.65
 mp_comm_size                   ******* -0.2    82.53    82.53    82.53    82.53
 mp_comm_split_direct           ******* 18.0    63.38    63.38    82.38    82.38
 is_cell_in_index_to_cell       ******* -1.5    80.05    80.05    80.05    80.05
 dbt_tas_mp_comm                ******* 13.0    29.69    29.69    63.49    63.49
 mp_comm_rank                   ******* -0.2    61.39    61.39    61.39    61.39
 scf_env_do_scf                       1  3.0     0.00     0.00    55.55    55.55
 scf_env_do_scf_inner_loop           44  4.0     0.01     0.01    55.55    55.55
 mp_comm_free                   *******  2.1    52.33    52.33    52.33    52.33
 dbt_tas_replicate_communicate_ ******* 15.9    12.43    12.43    43.60    43.60
 qs_scf_new_mos_kp                   44  5.0     0.00     0.00    42.77    42.77
 do_general_diag_kp                  44  6.0     0.14     0.14    42.77    42.77
 compute_3c_integrals                 1  7.0     0.02     0.02    40.67    40.67
 build_3c_integrals                   1  8.0    39.21    39.21    40.50    40.50
 G_occ_vir                           41  8.0     0.19     0.19    40.18    40.18
 dbt_tas_reshape_alltoall       ******* 16.4    17.68    17.68    36.37    36.37
 mp_alltoall_i                  ******* 15.4    34.49    34.49    34.49    34.49
 mp_sync                        ******* -4.5    33.44    33.44    33.44    33.44
 fm_add_ikp_to_rs                 23616  9.0     4.47     4.47    26.39    26.39
 compute_QP_energies                  1  7.0     0.02     0.02    24.18    24.18
 trafo_to_k_and_nn                15204  8.0     0.12     0.12    24.07    24.07
 dbt_nd_mp_comm                 3131309 12.0     6.57     6.57    22.88    22.88
 dbt_tas_merge_communicate_buff 9071378 16.0     7.89     7.89    22.41    22.41
 dbt_pgrid_create_expert        6262631 13.5    11.50    11.50    21.16    21.16
 fm_trafo_rs_to_ikp               15204  9.0     2.40     2.40    20.48    20.48
 mp_sum_l                       ******* -8.9    20.03    20.03    20.03    20.03
 add_V_L                          46080 10.0    19.32    19.32    19.32    19.32
 dbcsr_finalize                  484589 10.5     4.41     4.41    16.46    16.46
 copy_dbcsr_to_fm                 83938  7.8     0.30     0.30    16.00    16.00
 dbcsr_complete_redistribute     136941  9.3     2.50     2.50    15.71    15.71
 dbt_tas_merge_alltoall         9071378 16.0    11.09    11.09    15.36    15.36
 setup_parallelization_Delta_R        1  7.0     0.00     0.00    15.35    15.35
 compute_n_tensor_ops_Delta_R         1  8.0     7.33     7.33    15.21    15.21
 get_Minv_Vtr_Minv_R                  1  8.0     0.18     0.18    14.84    14.84
 heuristic_RI_regularization          1  7.0     0.00     0.00    14.50    14.50
 fm_to_local_tensor               27508  9.0     0.33     0.33    13.92    13.92
 rskp_transform                   29688  7.2    13.56    13.56    13.56    13.56
 dbt_distribution_destroy       6262628 12.5    11.18    11.18    12.86    12.86
 dbt_tas_replicate_alltoall     ******* 15.9    10.08    10.08    12.55    12.55
 dbt_buffer_get_index           ******* 16.7    12.09    12.09    12.09    12.09
 kpoint_density_transform            44  7.0     0.04     0.04    11.65    11.65
 mp_dims_create                 ******* 14.3    11.60    11.60    11.60    11.60
 dbcsr_merge_all                 183241 11.6     8.96     8.96    10.33    10.33
 copy_fm_to_dbcsr                 53003  9.0     0.10     0.10     9.65     9.65
 mp_bcast_i                     ******* 18.0     9.29     9.29     9.29     9.29
 mp_cart_rank                   ******* 15.9     8.97     8.97     8.97     8.97
 mp_max_i                       ******* 11.4     8.73     8.73     8.73     8.73
 cp_cfm_heevd                     15568  7.9     0.01     0.01     8.02     8.02
 cp_cfm_heevd_base                15568  8.9     8.02     8.02     8.02     8.02
 dbt_create_template             588746  9.0     7.78     7.78     7.78     7.78
 dbcsr_filter_anytype            130127 10.9     0.85     0.85     7.57     7.57
 qs_ks_build_kohn_sham_matrix        47  7.1     0.01     0.01     7.46     7.46
 qs_ks_update_qs_env                 44  5.0     0.00     0.00     7.10     7.10
 rebuild_ks_matrix                   44  6.0     0.00     0.00     7.04     7.04
 parallel_gemm_cfm                62712  8.7     0.03     0.03     6.98     6.98
 cp_cfm_gemm                      64884 10.7     6.96     6.96     6.96     6.96
 parallel_gemm_cfm_gemm           62712  9.7     0.03     0.03     6.95     6.95
 local_dbt_to_global_fm              31  8.0     0.02     0.02     6.67     6.67
 cp_cfm_geeig                     12672  7.0     0.03     0.03     6.24     6.24
 dbcsr_desymmetrize_deep         143314  8.1     1.12     1.12     5.95     5.95
 transform_dmat                   12672  8.0     5.84     5.84     5.84     5.84
 mp_sum_i                       ******* 16.0     5.69     5.69     5.69     5.69
 -------------------------------------------------------------------------------

 The number of warnings for this run is : 1
 
 -------------------------------------------------------------------------------
  **** **** ******  **  PROGRAM ENDED AT                 2025-04-26 18:39:18.827
 ***** ** ***  *** **   PROGRAM RAN ON             localadmin-ThinkPad-P16-Gen-2
 **    ****   ******    PROGRAM RAN BY                                localadmin
 ***** **    ** ** **   PROGRAM PROCESS ID                                 61424
  **** **  *******  **  PROGRAM STOPPED IN /home/localadmin/Documents/Benchmark_
                                           TMD/SNG/4_WSe2_
