 DBCSR| CPU Multiplication driver                                           XSMM (U)
 DBCSR| Multrec recursion limit                                              512 (U)
 DBCSR| Multiplication stack size                                           1000 (D)
 DBCSR| Maximum elements for images                                    UNLIMITED (U)
 DBCSR| Multiplicative factor virtual images                                   1 (U)
 DBCSR| Use multiplication densification                                       T (D)
 DBCSR| Multiplication size stacks                                             3 (U)
 DBCSR| Use memory pool for CPU allocation                                     F (U)
 DBCSR| Number of 3D layers                                               SINGLE (U)
 DBCSR| Use MPI memory allocation                                              F (U)
 DBCSR| Use RMA algorithm                                                      F (U)
 DBCSR| Use Communication thread                                               T (U)
 DBCSR| Communication thread load                                             60 (D)
 DBCSR| MPI: My process id                                                     0
 DBCSR| MPI: Number of processes                                             128
 DBCSR| OMP: Current number of threads                                         8
 DBCSR| OMP: Max number of threads                                             8
 DBCSR| Split modifier for TAS multiplication algorithm                  1.0E+00 (U)


  **** **** ******  **  PROGRAM STARTED AT               2025-09-22 15:38:58.131
 ***** ** ***  *** **   PROGRAM STARTED ON                             n2lcn0113
 **    ****   ******    PROGRAM STARTED BY                              metdyn02
 ***** **    ** ** **   PROGRAM PROCESS ID                               3227822
  **** **  *******  **  PROGRAM STARTED IN /scratch/hpc-prf-metdyn/metdyn02_Remi
                                           /05_TMD_new/paperbenchmarksMoS2/kpoin
                                           ts/64

 CP2K| version string:                 CP2K version 2025.2 (Development Version)
 CP2K| source code revision number:                                  git:8d80afc
 CP2K| cp2kflags: omp libint fftw3 libxc libgrpp elpa parallel scalapack mpi_f08
 CP2K|             cosma xsmm plumed2 spglib libvori libbqb libvdwxc hdf5
 CP2K| is freely available from                            https://www.cp2k.org/
 CP2K| Program compiled at                         Mon Sep  8 11:02:08 CEST 2025
 CP2K| Program compiled on                                              n2login1
 CP2K| Program compiled for                                                local
 CP2K| Data directory path    /opt/software/pc2/EB-SW/software/CP2K/2025.2-foss-
 CP2K| Input file name                                                    GW.inp

 GLOBAL| Force Environment number                                              1
 GLOBAL| Basis set file name            /scratch/hpc-prf-metdyn/metdyn02_Remi/05
 GLOBAL| Potential file name                                  GTH_SOC_POTENTIALS
 GLOBAL| MM Potential file name                                     MM_POTENTIAL
 GLOBAL| Coordinate file name                                      __STD_INPUT__
 GLOBAL| Method name                                                        CP2K
 GLOBAL| Project name                                                       WSe2
 GLOBAL| Run type                                                         ENERGY
 GLOBAL| FFT library                                                       FFTW3
 GLOBAL| Diagonalization library                                            ELPA
 GLOBAL| Cholesky decomposition library                                ScaLAPACK
 GLOBAL| DGEMM library                                                      BLAS
 GLOBAL| Minimum number of eigenvectors for ELPA usage                        16
 GLOBAL| Orthonormality check for eigenvectors                          DISABLED
 GLOBAL| Matrix multiplication library                                     COSMA
 GLOBAL| All-to-all communication in single precision                          F
 GLOBAL| FFTs using library dependent lengths                                  F
 GLOBAL| Grid backend                                                       AUTO
 GLOBAL| Global print level                                               MEDIUM
 GLOBAL| MPI I/O enabled                                                       T
 GLOBAL| Total number of message passing processes                           128
 GLOBAL| Number of threads for this process                                    8
 GLOBAL| This output is from process                                           0
 GLOBAL| OpenMP stack size per thread (OMP_STACKSIZE)                    default
 GLOBAL| CPU model name                          AMD EPYC 7763 64-Core Processor
 GLOBAL| CPUID                                                              1002

 MEMORY| system memory details [Kb]
 MEMORY|                        rank 0           min           max       average
 MEMORY| MemTotal           1056620476    1056620440    1056620528    1056620478
 MEMORY| MemFree            1031047392    1028352984    1035143392    1031936696
 MEMORY| Buffers                 53140         53140        443640        159121
 MEMORY| Cached               16029708      11772216      16086404      14102714
 MEMORY| Slab                  2330024       2330024       3905056       3031591
 MEMORY| SReclaimable           663148        663148       1404700       1080115
 MEMORY| MemLikelyFree      1047793388    1045956908    1048649112    1047278647


 *** Fundamental physical constants (SI units) ***

 *** Literature: B. J. Mohr and B. N. Taylor,
 ***             CODATA recommended values of the fundamental physical
 ***             constants: 2006, Web Version 5.1
 ***             http://physics.nist.gov/constants

 Speed of light in vacuum [m/s]                             2.99792458000000E+08
 Magnetic constant or permeability of vacuum [N/A**2]       1.25663706143592E-06
 Electric constant or permittivity of vacuum [F/m]          8.85418781762039E-12
 Planck constant (h) [J*s]                                  6.62606896000000E-34
 Planck constant (h-bar) [J*s]                              1.05457162825177E-34
 Elementary charge [C]                                      1.60217648700000E-19
 Electron mass [kg]                                         9.10938215000000E-31
 Electron g factor [ ]                                     -2.00231930436220E+00
 Proton mass [kg]                                           1.67262163700000E-27
 Fine-structure constant                                    7.29735253760000E-03
 Rydberg constant [1/m]                                     1.09737315685270E+07
 Avogadro constant [1/mol]                                  6.02214179000000E+23
 Boltzmann constant [J/K]                                   1.38065040000000E-23
 Atomic mass unit [kg]                                      1.66053878200000E-27
 Bohr radius [m]                                            5.29177208590000E-11

 *** Conversion factors ***

 [u] -> [a.u.]                                              1.82288848426455E+03
 [Angstrom] -> [Bohr] = [a.u.]                              1.88972613288564E+00
 [a.u.] = [Bohr] -> [Angstrom]                              5.29177208590000E-01
 [a.u.] -> [s]                                              2.41888432650478E-17
 [a.u.] -> [fs]                                             2.41888432650478E-02
 [a.u.] -> [J]                                              4.35974393937059E-18
 [a.u.] -> [N]                                              8.23872205491840E-08
 [a.u.] -> [K]                                              3.15774647902944E+05
 [a.u.] -> [kJ/mol]                                         2.62549961709828E+03
 [a.u.] -> [kcal/mol]                                       6.27509468713739E+02
 [a.u.] -> [Pa]                                             2.94210107994716E+13
 [a.u.] -> [bar]                                            2.94210107994716E+08
 [a.u.] -> [atm]                                            2.90362800883016E+08
 [a.u.] -> [eV]                                             2.72113838565563E+01
 [a.u.] -> [Hz]                                             6.57968392072181E+15
 [a.u.] -> [1/cm] (wave numbers)                            2.19474631370540E+05
 [a.u./Bohr**2] -> [1/cm]                                   5.14048714338585E+03
 

 CELL_TOP| Volume [angstrom^3]:                                       131.694613
 CELL_TOP| Vector a [angstrom     3.184     0.000     0.000   |a| =     3.184000
 CELL_TOP| Vector b [angstrom    -1.592     2.757     0.000   |b| =     3.184000
 CELL_TOP| Vector c [angstrom     0.000     0.000    15.000   |c| =    15.000000
 CELL_TOP| Angle (b,c), alpha [degree]:                                90.000000
 CELL_TOP| Angle (a,c), beta  [degree]:                                90.000000
 CELL_TOP| Angle (a,b), gamma [degree]:                               120.000000
 CELL_TOP| Numerically orthorhombic:                                          NO
 CELL_TOP| Periodicity                                                        XY

 GENERATE|  Preliminary Number of Bonds generated:                             0
 GENERATE|  Achieved consistency in connectivity generation.

 CELL| Volume [angstrom^3]:                                           131.694613
 CELL| Vector a [angstrom]:       3.184     0.000     0.000   |a| =     3.184000
 CELL| Vector b [angstrom]:      -1.592     2.757     0.000   |b| =     3.184000
 CELL| Vector c [angstrom]:       0.000     0.000    15.000   |c| =    15.000000
 CELL| Angle (b,c), alpha [degree]:                                    90.000000
 CELL| Angle (a,c), beta  [degree]:                                    90.000000
 CELL| Angle (a,b), gamma [degree]:                                   120.000000
 CELL| Numerically orthorhombic:                                              NO
 CELL| Periodicity                                                            XY

 CELL_REF| Volume [angstrom^3]:                                       131.694613
 CELL_REF| Vector a [angstrom     3.184     0.000     0.000   |a| =     3.184000
 CELL_REF| Vector b [angstrom    -1.592     2.757     0.000   |b| =     3.184000
 CELL_REF| Vector c [angstrom     0.000     0.000    15.000   |c| =    15.000000
 CELL_REF| Angle (b,c), alpha [degree]:                                90.000000
 CELL_REF| Angle (a,c), beta  [degree]:                                90.000000
 CELL_REF| Angle (a,b), gamma [degree]:                               120.000000
 CELL_REF| Numerically orthorhombic:                                          NO
 CELL_REF| Periodicity                                                        XY

 *******************************************************************************
                                    Kpoints
 *******************************************************************************
 BRILLOUIN| K-point scheme                                        Monkhorst-Pack
 BRILLOUIN| K-Point grid                                            64   64    1
 BRILLOUIN| Accuracy in Symmetry determination                      0.100000E-05
 BRILLOUIN| K-Point point group symmetrization                               OFF
 BRILLOUIN| Wavefunction type                                            COMPLEX
 BRILLOUIN| List of Kpoints [2 Pi/Bohr]                                     2048
 BRILLOUIN| Number           Weight            X              Y              Z
 BRILLOUIN|     1           0.00049       -0.49219       -0.49219        0.00000
 BRILLOUIN|     2           0.00049       -0.49219       -0.47656        0.00000
 BRILLOUIN|     3           0.00049       -0.49219       -0.46094        0.00000
 BRILLOUIN|     4           0.00049       -0.49219       -0.44531        0.00000
 BRILLOUIN|     5           0.00049       -0.49219       -0.42969        0.00000
 BRILLOUIN|     6           0.00049       -0.49219       -0.41406        0.00000
 BRILLOUIN|     7           0.00049       -0.49219       -0.39844        0.00000
 BRILLOUIN|     8           0.00049       -0.49219       -0.38281        0.00000
 BRILLOUIN|     9           0.00049       -0.49219       -0.36719        0.00000
 BRILLOUIN|    10           0.00049       -0.49219       -0.35156        0.00000
 BRILLOUIN|    11           0.00049       -0.49219       -0.33594        0.00000
 BRILLOUIN|    12           0.00049       -0.49219       -0.32031        0.00000
 BRILLOUIN|    13           0.00049       -0.49219       -0.30469        0.00000
 BRILLOUIN|    14           0.00049       -0.49219       -0.28906        0.00000
 BRILLOUIN|    15           0.00049       -0.49219       -0.27344        0.00000
 BRILLOUIN|    16           0.00049       -0.49219       -0.25781        0.00000
 BRILLOUIN|    17           0.00049       -0.49219       -0.24219        0.00000
 BRILLOUIN|    18           0.00049       -0.49219       -0.22656        0.00000
 BRILLOUIN|    19           0.00049       -0.49219       -0.21094        0.00000
 BRILLOUIN|    20           0.00049       -0.49219       -0.19531        0.00000
 BRILLOUIN|    21           0.00049       -0.49219       -0.17969        0.00000
 BRILLOUIN|    22           0.00049       -0.49219       -0.16406        0.00000
 BRILLOUIN|    23           0.00049       -0.49219       -0.14844        0.00000
 BRILLOUIN|    24           0.00049       -0.49219       -0.13281        0.00000
 BRILLOUIN|    25           0.00049       -0.49219       -0.11719        0.00000
 BRILLOUIN|    26           0.00049       -0.49219       -0.10156        0.00000
 BRILLOUIN|    27           0.00049       -0.49219       -0.08594        0.00000
 BRILLOUIN|    28           0.00049       -0.49219       -0.07031        0.00000
 BRILLOUIN|    29           0.00049       -0.49219       -0.05469        0.00000
 BRILLOUIN|    30           0.00049       -0.49219       -0.03906        0.00000
 BRILLOUIN|    31           0.00049       -0.49219       -0.02344        0.00000
 BRILLOUIN|    32           0.00049       -0.49219       -0.00781        0.00000
 BRILLOUIN|    33           0.00049       -0.49219        0.00781        0.00000
 BRILLOUIN|    34           0.00049       -0.49219        0.02344        0.00000
 BRILLOUIN|    35           0.00049       -0.49219        0.03906        0.00000
 BRILLOUIN|    36           0.00049       -0.49219        0.05469        0.00000
 BRILLOUIN|    37           0.00049       -0.49219        0.07031        0.00000
 BRILLOUIN|    38           0.00049       -0.49219        0.08594        0.00000
 BRILLOUIN|    39           0.00049       -0.49219        0.10156        0.00000
 BRILLOUIN|    40           0.00049       -0.49219        0.11719        0.00000
 BRILLOUIN|    41           0.00049       -0.49219        0.13281        0.00000
 BRILLOUIN|    42           0.00049       -0.49219        0.14844        0.00000
 BRILLOUIN|    43           0.00049       -0.49219        0.16406        0.00000
 BRILLOUIN|    44           0.00049       -0.49219        0.17969        0.00000
 BRILLOUIN|    45           0.00049       -0.49219        0.19531        0.00000
 BRILLOUIN|    46           0.00049       -0.49219        0.21094        0.00000
 BRILLOUIN|    47           0.00049       -0.49219        0.22656        0.00000
 BRILLOUIN|    48           0.00049       -0.49219        0.24219        0.00000
 BRILLOUIN|    49           0.00049       -0.49219        0.25781        0.00000
 BRILLOUIN|    50           0.00049       -0.49219        0.27344        0.00000
 BRILLOUIN|    51           0.00049       -0.49219        0.28906        0.00000
 BRILLOUIN|    52           0.00049       -0.49219        0.30469        0.00000
 BRILLOUIN|    53           0.00049       -0.49219        0.32031        0.00000
 BRILLOUIN|    54           0.00049       -0.49219        0.33594        0.00000
 BRILLOUIN|    55           0.00049       -0.49219        0.35156        0.00000
 BRILLOUIN|    56           0.00049       -0.49219        0.36719        0.00000
 BRILLOUIN|    57           0.00049       -0.49219        0.38281        0.00000
 BRILLOUIN|    58           0.00049       -0.49219        0.39844        0.00000
 BRILLOUIN|    59           0.00049       -0.49219        0.41406        0.00000
 BRILLOUIN|    60           0.00049       -0.49219        0.42969        0.00000
 BRILLOUIN|    61           0.00049       -0.49219        0.44531        0.00000
 BRILLOUIN|    62           0.00049       -0.49219        0.46094        0.00000
 BRILLOUIN|    63           0.00049       -0.49219        0.47656        0.00000
 BRILLOUIN|    64           0.00049       -0.49219        0.49219        0.00000
 BRILLOUIN|    65           0.00049       -0.47656       -0.49219        0.00000
 BRILLOUIN|    66           0.00049       -0.47656       -0.47656        0.00000
 BRILLOUIN|    67           0.00049       -0.47656       -0.46094        0.00000
 BRILLOUIN|    68           0.00049       -0.47656       -0.44531        0.00000
 BRILLOUIN|    69           0.00049       -0.47656       -0.42969        0.00000
 BRILLOUIN|    70           0.00049       -0.47656       -0.41406        0.00000
 BRILLOUIN|    71           0.00049       -0.47656       -0.39844        0.00000
 BRILLOUIN|    72           0.00049       -0.47656       -0.38281        0.00000
 BRILLOUIN|    73           0.00049       -0.47656       -0.36719        0.00000
 BRILLOUIN|    74           0.00049       -0.47656       -0.35156        0.00000
 BRILLOUIN|    75           0.00049       -0.47656       -0.33594        0.00000
 BRILLOUIN|    76           0.00049       -0.47656       -0.32031        0.00000
 BRILLOUIN|    77           0.00049       -0.47656       -0.30469        0.00000
 BRILLOUIN|    78           0.00049       -0.47656       -0.28906        0.00000
 BRILLOUIN|    79           0.00049       -0.47656       -0.27344        0.00000
 BRILLOUIN|    80           0.00049       -0.47656       -0.25781        0.00000
 BRILLOUIN|    81           0.00049       -0.47656       -0.24219        0.00000
 BRILLOUIN|    82           0.00049       -0.47656       -0.22656        0.00000
 BRILLOUIN|    83           0.00049       -0.47656       -0.21094        0.00000
 BRILLOUIN|    84           0.00049       -0.47656       -0.19531        0.00000
 BRILLOUIN|    85           0.00049       -0.47656       -0.17969        0.00000
 BRILLOUIN|    86           0.00049       -0.47656       -0.16406        0.00000
 BRILLOUIN|    87           0.00049       -0.47656       -0.14844        0.00000
 BRILLOUIN|    88           0.00049       -0.47656       -0.13281        0.00000
 BRILLOUIN|    89           0.00049       -0.47656       -0.11719        0.00000
 BRILLOUIN|    90           0.00049       -0.47656       -0.10156        0.00000
 BRILLOUIN|    91           0.00049       -0.47656       -0.08594        0.00000
 BRILLOUIN|    92           0.00049       -0.47656       -0.07031        0.00000
 BRILLOUIN|    93           0.00049       -0.47656       -0.05469        0.00000
 BRILLOUIN|    94           0.00049       -0.47656       -0.03906        0.00000
 BRILLOUIN|    95           0.00049       -0.47656       -0.02344        0.00000
 BRILLOUIN|    96           0.00049       -0.47656       -0.00781        0.00000
 BRILLOUIN|    97           0.00049       -0.47656        0.00781        0.00000
 BRILLOUIN|    98           0.00049       -0.47656        0.02344        0.00000
 BRILLOUIN|    99           0.00049       -0.47656        0.03906        0.00000
 BRILLOUIN|   100           0.00049       -0.47656        0.05469        0.00000
 BRILLOUIN|   101           0.00049       -0.47656        0.07031        0.00000
 BRILLOUIN|   102           0.00049       -0.47656        0.08594        0.00000
 BRILLOUIN|   103           0.00049       -0.47656        0.10156        0.00000
 BRILLOUIN|   104           0.00049       -0.47656        0.11719        0.00000
 BRILLOUIN|   105           0.00049       -0.47656        0.13281        0.00000
 BRILLOUIN|   106           0.00049       -0.47656        0.14844        0.00000
 BRILLOUIN|   107           0.00049       -0.47656        0.16406        0.00000
 BRILLOUIN|   108           0.00049       -0.47656        0.17969        0.00000
 BRILLOUIN|   109           0.00049       -0.47656        0.19531        0.00000
 BRILLOUIN|   110           0.00049       -0.47656        0.21094        0.00000
 BRILLOUIN|   111           0.00049       -0.47656        0.22656        0.00000
 BRILLOUIN|   112           0.00049       -0.47656        0.24219        0.00000
 BRILLOUIN|   113           0.00049       -0.47656        0.25781        0.00000
 BRILLOUIN|   114           0.00049       -0.47656        0.27344        0.00000
 BRILLOUIN|   115           0.00049       -0.47656        0.28906        0.00000
 BRILLOUIN|   116           0.00049       -0.47656        0.30469        0.00000
 BRILLOUIN|   117           0.00049       -0.47656        0.32031        0.00000
 BRILLOUIN|   118           0.00049       -0.47656        0.33594        0.00000
 BRILLOUIN|   119           0.00049       -0.47656        0.35156        0.00000
 BRILLOUIN|   120           0.00049       -0.47656        0.36719        0.00000
 BRILLOUIN|   121           0.00049       -0.47656        0.38281        0.00000
 BRILLOUIN|   122           0.00049       -0.47656        0.39844        0.00000
 BRILLOUIN|   123           0.00049       -0.47656        0.41406        0.00000
 BRILLOUIN|   124           0.00049       -0.47656        0.42969        0.00000
 BRILLOUIN|   125           0.00049       -0.47656        0.44531        0.00000
 BRILLOUIN|   126           0.00049       -0.47656        0.46094        0.00000
 BRILLOUIN|   127           0.00049       -0.47656        0.47656        0.00000
 BRILLOUIN|   128           0.00049       -0.47656        0.49219        0.00000
 BRILLOUIN|   129           0.00049       -0.46094       -0.49219        0.00000
 BRILLOUIN|   130           0.00049       -0.46094       -0.47656        0.00000
 BRILLOUIN|   131           0.00049       -0.46094       -0.46094        0.00000
 BRILLOUIN|   132           0.00049       -0.46094       -0.44531        0.00000
 BRILLOUIN|   133           0.00049       -0.46094       -0.42969        0.00000
 BRILLOUIN|   134           0.00049       -0.46094       -0.41406        0.00000
 BRILLOUIN|   135           0.00049       -0.46094       -0.39844        0.00000
 BRILLOUIN|   136           0.00049       -0.46094       -0.38281        0.00000
 BRILLOUIN|   137           0.00049       -0.46094       -0.36719        0.00000
 BRILLOUIN|   138           0.00049       -0.46094       -0.35156        0.00000
 BRILLOUIN|   139           0.00049       -0.46094       -0.33594        0.00000
 BRILLOUIN|   140           0.00049       -0.46094       -0.32031        0.00000
 BRILLOUIN|   141           0.00049       -0.46094       -0.30469        0.00000
 BRILLOUIN|   142           0.00049       -0.46094       -0.28906        0.00000
 BRILLOUIN|   143           0.00049       -0.46094       -0.27344        0.00000
 BRILLOUIN|   144           0.00049       -0.46094       -0.25781        0.00000
 BRILLOUIN|   145           0.00049       -0.46094       -0.24219        0.00000
 BRILLOUIN|   146           0.00049       -0.46094       -0.22656        0.00000
 BRILLOUIN|   147           0.00049       -0.46094       -0.21094        0.00000
 BRILLOUIN|   148           0.00049       -0.46094       -0.19531        0.00000
 BRILLOUIN|   149           0.00049       -0.46094       -0.17969        0.00000
 BRILLOUIN|   150           0.00049       -0.46094       -0.16406        0.00000
 BRILLOUIN|   151           0.00049       -0.46094       -0.14844        0.00000
 BRILLOUIN|   152           0.00049       -0.46094       -0.13281        0.00000
 BRILLOUIN|   153           0.00049       -0.46094       -0.11719        0.00000
 BRILLOUIN|   154           0.00049       -0.46094       -0.10156        0.00000
 BRILLOUIN|   155           0.00049       -0.46094       -0.08594        0.00000
 BRILLOUIN|   156           0.00049       -0.46094       -0.07031        0.00000
 BRILLOUIN|   157           0.00049       -0.46094       -0.05469        0.00000
 BRILLOUIN|   158           0.00049       -0.46094       -0.03906        0.00000
 BRILLOUIN|   159           0.00049       -0.46094       -0.02344        0.00000
 BRILLOUIN|   160           0.00049       -0.46094       -0.00781        0.00000
 BRILLOUIN|   161           0.00049       -0.46094        0.00781        0.00000
 BRILLOUIN|   162           0.00049       -0.46094        0.02344        0.00000
 BRILLOUIN|   163           0.00049       -0.46094        0.03906        0.00000
 BRILLOUIN|   164           0.00049       -0.46094        0.05469        0.00000
 BRILLOUIN|   165           0.00049       -0.46094        0.07031        0.00000
 BRILLOUIN|   166           0.00049       -0.46094        0.08594        0.00000
 BRILLOUIN|   167           0.00049       -0.46094        0.10156        0.00000
 BRILLOUIN|   168           0.00049       -0.46094        0.11719        0.00000
 BRILLOUIN|   169           0.00049       -0.46094        0.13281        0.00000
 BRILLOUIN|   170           0.00049       -0.46094        0.14844        0.00000
 BRILLOUIN|   171           0.00049       -0.46094        0.16406        0.00000
 BRILLOUIN|   172           0.00049       -0.46094        0.17969        0.00000
 BRILLOUIN|   173           0.00049       -0.46094        0.19531        0.00000
 BRILLOUIN|   174           0.00049       -0.46094        0.21094        0.00000
 BRILLOUIN|   175           0.00049       -0.46094        0.22656        0.00000
 BRILLOUIN|   176           0.00049       -0.46094        0.24219        0.00000
 BRILLOUIN|   177           0.00049       -0.46094        0.25781        0.00000
 BRILLOUIN|   178           0.00049       -0.46094        0.27344        0.00000
 BRILLOUIN|   179           0.00049       -0.46094        0.28906        0.00000
 BRILLOUIN|   180           0.00049       -0.46094        0.30469        0.00000
 BRILLOUIN|   181           0.00049       -0.46094        0.32031        0.00000
 BRILLOUIN|   182           0.00049       -0.46094        0.33594        0.00000
 BRILLOUIN|   183           0.00049       -0.46094        0.35156        0.00000
 BRILLOUIN|   184           0.00049       -0.46094        0.36719        0.00000
 BRILLOUIN|   185           0.00049       -0.46094        0.38281        0.00000
 BRILLOUIN|   186           0.00049       -0.46094        0.39844        0.00000
 BRILLOUIN|   187           0.00049       -0.46094        0.41406        0.00000
 BRILLOUIN|   188           0.00049       -0.46094        0.42969        0.00000
 BRILLOUIN|   189           0.00049       -0.46094        0.44531        0.00000
 BRILLOUIN|   190           0.00049       -0.46094        0.46094        0.00000
 BRILLOUIN|   191           0.00049       -0.46094        0.47656        0.00000
 BRILLOUIN|   192           0.00049       -0.46094        0.49219        0.00000
 BRILLOUIN|   193           0.00049       -0.44531       -0.49219        0.00000
 BRILLOUIN|   194           0.00049       -0.44531       -0.47656        0.00000
 BRILLOUIN|   195           0.00049       -0.44531       -0.46094        0.00000
 BRILLOUIN|   196           0.00049       -0.44531       -0.44531        0.00000
 BRILLOUIN|   197           0.00049       -0.44531       -0.42969        0.00000
 BRILLOUIN|   198           0.00049       -0.44531       -0.41406        0.00000
 BRILLOUIN|   199           0.00049       -0.44531       -0.39844        0.00000
 BRILLOUIN|   200           0.00049       -0.44531       -0.38281        0.00000
 BRILLOUIN|   201           0.00049       -0.44531       -0.36719        0.00000
 BRILLOUIN|   202           0.00049       -0.44531       -0.35156        0.00000
 BRILLOUIN|   203           0.00049       -0.44531       -0.33594        0.00000
 BRILLOUIN|   204           0.00049       -0.44531       -0.32031        0.00000
 BRILLOUIN|   205           0.00049       -0.44531       -0.30469        0.00000
 BRILLOUIN|   206           0.00049       -0.44531       -0.28906        0.00000
 BRILLOUIN|   207           0.00049       -0.44531       -0.27344        0.00000
 BRILLOUIN|   208           0.00049       -0.44531       -0.25781        0.00000
 BRILLOUIN|   209           0.00049       -0.44531       -0.24219        0.00000
 BRILLOUIN|   210           0.00049       -0.44531       -0.22656        0.00000
 BRILLOUIN|   211           0.00049       -0.44531       -0.21094        0.00000
 BRILLOUIN|   212           0.00049       -0.44531       -0.19531        0.00000
 BRILLOUIN|   213           0.00049       -0.44531       -0.17969        0.00000
 BRILLOUIN|   214           0.00049       -0.44531       -0.16406        0.00000
 BRILLOUIN|   215           0.00049       -0.44531       -0.14844        0.00000
 BRILLOUIN|   216           0.00049       -0.44531       -0.13281        0.00000
 BRILLOUIN|   217           0.00049       -0.44531       -0.11719        0.00000
 BRILLOUIN|   218           0.00049       -0.44531       -0.10156        0.00000
 BRILLOUIN|   219           0.00049       -0.44531       -0.08594        0.00000
 BRILLOUIN|   220           0.00049       -0.44531       -0.07031        0.00000
 BRILLOUIN|   221           0.00049       -0.44531       -0.05469        0.00000
 BRILLOUIN|   222           0.00049       -0.44531       -0.03906        0.00000
 BRILLOUIN|   223           0.00049       -0.44531       -0.02344        0.00000
 BRILLOUIN|   224           0.00049       -0.44531       -0.00781        0.00000
 BRILLOUIN|   225           0.00049       -0.44531        0.00781        0.00000
 BRILLOUIN|   226           0.00049       -0.44531        0.02344        0.00000
 BRILLOUIN|   227           0.00049       -0.44531        0.03906        0.00000
 BRILLOUIN|   228           0.00049       -0.44531        0.05469        0.00000
 BRILLOUIN|   229           0.00049       -0.44531        0.07031        0.00000
 BRILLOUIN|   230           0.00049       -0.44531        0.08594        0.00000
 BRILLOUIN|   231           0.00049       -0.44531        0.10156        0.00000
 BRILLOUIN|   232           0.00049       -0.44531        0.11719        0.00000
 BRILLOUIN|   233           0.00049       -0.44531        0.13281        0.00000
 BRILLOUIN|   234           0.00049       -0.44531        0.14844        0.00000
 BRILLOUIN|   235           0.00049       -0.44531        0.16406        0.00000
 BRILLOUIN|   236           0.00049       -0.44531        0.17969        0.00000
 BRILLOUIN|   237           0.00049       -0.44531        0.19531        0.00000
 BRILLOUIN|   238           0.00049       -0.44531        0.21094        0.00000
 BRILLOUIN|   239           0.00049       -0.44531        0.22656        0.00000
 BRILLOUIN|   240           0.00049       -0.44531        0.24219        0.00000
 BRILLOUIN|   241           0.00049       -0.44531        0.25781        0.00000
 BRILLOUIN|   242           0.00049       -0.44531        0.27344        0.00000
 BRILLOUIN|   243           0.00049       -0.44531        0.28906        0.00000
 BRILLOUIN|   244           0.00049       -0.44531        0.30469        0.00000
 BRILLOUIN|   245           0.00049       -0.44531        0.32031        0.00000
 BRILLOUIN|   246           0.00049       -0.44531        0.33594        0.00000
 BRILLOUIN|   247           0.00049       -0.44531        0.35156        0.00000
 BRILLOUIN|   248           0.00049       -0.44531        0.36719        0.00000
 BRILLOUIN|   249           0.00049       -0.44531        0.38281        0.00000
 BRILLOUIN|   250           0.00049       -0.44531        0.39844        0.00000
 BRILLOUIN|   251           0.00049       -0.44531        0.41406        0.00000
 BRILLOUIN|   252           0.00049       -0.44531        0.42969        0.00000
 BRILLOUIN|   253           0.00049       -0.44531        0.44531        0.00000
 BRILLOUIN|   254           0.00049       -0.44531        0.46094        0.00000
 BRILLOUIN|   255           0.00049       -0.44531        0.47656        0.00000
 BRILLOUIN|   256           0.00049       -0.44531        0.49219        0.00000
 BRILLOUIN|   257           0.00049       -0.42969       -0.49219        0.00000
 BRILLOUIN|   258           0.00049       -0.42969       -0.47656        0.00000
 BRILLOUIN|   259           0.00049       -0.42969       -0.46094        0.00000
 BRILLOUIN|   260           0.00049       -0.42969       -0.44531        0.00000
 BRILLOUIN|   261           0.00049       -0.42969       -0.42969        0.00000
 BRILLOUIN|   262           0.00049       -0.42969       -0.41406        0.00000
 BRILLOUIN|   263           0.00049       -0.42969       -0.39844        0.00000
 BRILLOUIN|   264           0.00049       -0.42969       -0.38281        0.00000
 BRILLOUIN|   265           0.00049       -0.42969       -0.36719        0.00000
 BRILLOUIN|   266           0.00049       -0.42969       -0.35156        0.00000
 BRILLOUIN|   267           0.00049       -0.42969       -0.33594        0.00000
 BRILLOUIN|   268           0.00049       -0.42969       -0.32031        0.00000
 BRILLOUIN|   269           0.00049       -0.42969       -0.30469        0.00000
 BRILLOUIN|   270           0.00049       -0.42969       -0.28906        0.00000
 BRILLOUIN|   271           0.00049       -0.42969       -0.27344        0.00000
 BRILLOUIN|   272           0.00049       -0.42969       -0.25781        0.00000
 BRILLOUIN|   273           0.00049       -0.42969       -0.24219        0.00000
 BRILLOUIN|   274           0.00049       -0.42969       -0.22656        0.00000
 BRILLOUIN|   275           0.00049       -0.42969       -0.21094        0.00000
 BRILLOUIN|   276           0.00049       -0.42969       -0.19531        0.00000
 BRILLOUIN|   277           0.00049       -0.42969       -0.17969        0.00000
 BRILLOUIN|   278           0.00049       -0.42969       -0.16406        0.00000
 BRILLOUIN|   279           0.00049       -0.42969       -0.14844        0.00000
 BRILLOUIN|   280           0.00049       -0.42969       -0.13281        0.00000
 BRILLOUIN|   281           0.00049       -0.42969       -0.11719        0.00000
 BRILLOUIN|   282           0.00049       -0.42969       -0.10156        0.00000
 BRILLOUIN|   283           0.00049       -0.42969       -0.08594        0.00000
 BRILLOUIN|   284           0.00049       -0.42969       -0.07031        0.00000
 BRILLOUIN|   285           0.00049       -0.42969       -0.05469        0.00000
 BRILLOUIN|   286           0.00049       -0.42969       -0.03906        0.00000
 BRILLOUIN|   287           0.00049       -0.42969       -0.02344        0.00000
 BRILLOUIN|   288           0.00049       -0.42969       -0.00781        0.00000
 BRILLOUIN|   289           0.00049       -0.42969        0.00781        0.00000
 BRILLOUIN|   290           0.00049       -0.42969        0.02344        0.00000
 BRILLOUIN|   291           0.00049       -0.42969        0.03906        0.00000
 BRILLOUIN|   292           0.00049       -0.42969        0.05469        0.00000
 BRILLOUIN|   293           0.00049       -0.42969        0.07031        0.00000
 BRILLOUIN|   294           0.00049       -0.42969        0.08594        0.00000
 BRILLOUIN|   295           0.00049       -0.42969        0.10156        0.00000
 BRILLOUIN|   296           0.00049       -0.42969        0.11719        0.00000
 BRILLOUIN|   297           0.00049       -0.42969        0.13281        0.00000
 BRILLOUIN|   298           0.00049       -0.42969        0.14844        0.00000
 BRILLOUIN|   299           0.00049       -0.42969        0.16406        0.00000
 BRILLOUIN|   300           0.00049       -0.42969        0.17969        0.00000
 BRILLOUIN|   301           0.00049       -0.42969        0.19531        0.00000
 BRILLOUIN|   302           0.00049       -0.42969        0.21094        0.00000
 BRILLOUIN|   303           0.00049       -0.42969        0.22656        0.00000
 BRILLOUIN|   304           0.00049       -0.42969        0.24219        0.00000
 BRILLOUIN|   305           0.00049       -0.42969        0.25781        0.00000
 BRILLOUIN|   306           0.00049       -0.42969        0.27344        0.00000
 BRILLOUIN|   307           0.00049       -0.42969        0.28906        0.00000
 BRILLOUIN|   308           0.00049       -0.42969        0.30469        0.00000
 BRILLOUIN|   309           0.00049       -0.42969        0.32031        0.00000
 BRILLOUIN|   310           0.00049       -0.42969        0.33594        0.00000
 BRILLOUIN|   311           0.00049       -0.42969        0.35156        0.00000
 BRILLOUIN|   312           0.00049       -0.42969        0.36719        0.00000
 BRILLOUIN|   313           0.00049       -0.42969        0.38281        0.00000
 BRILLOUIN|   314           0.00049       -0.42969        0.39844        0.00000
 BRILLOUIN|   315           0.00049       -0.42969        0.41406        0.00000
 BRILLOUIN|   316           0.00049       -0.42969        0.42969        0.00000
 BRILLOUIN|   317           0.00049       -0.42969        0.44531        0.00000
 BRILLOUIN|   318           0.00049       -0.42969        0.46094        0.00000
 BRILLOUIN|   319           0.00049       -0.42969        0.47656        0.00000
 BRILLOUIN|   320           0.00049       -0.42969        0.49219        0.00000
 BRILLOUIN|   321           0.00049       -0.41406       -0.49219        0.00000
 BRILLOUIN|   322           0.00049       -0.41406       -0.47656        0.00000
 BRILLOUIN|   323           0.00049       -0.41406       -0.46094        0.00000
 BRILLOUIN|   324           0.00049       -0.41406       -0.44531        0.00000
 BRILLOUIN|   325           0.00049       -0.41406       -0.42969        0.00000
 BRILLOUIN|   326           0.00049       -0.41406       -0.41406        0.00000
 BRILLOUIN|   327           0.00049       -0.41406       -0.39844        0.00000
 BRILLOUIN|   328           0.00049       -0.41406       -0.38281        0.00000
 BRILLOUIN|   329           0.00049       -0.41406       -0.36719        0.00000
 BRILLOUIN|   330           0.00049       -0.41406       -0.35156        0.00000
 BRILLOUIN|   331           0.00049       -0.41406       -0.33594        0.00000
 BRILLOUIN|   332           0.00049       -0.41406       -0.32031        0.00000
 BRILLOUIN|   333           0.00049       -0.41406       -0.30469        0.00000
 BRILLOUIN|   334           0.00049       -0.41406       -0.28906        0.00000
 BRILLOUIN|   335           0.00049       -0.41406       -0.27344        0.00000
 BRILLOUIN|   336           0.00049       -0.41406       -0.25781        0.00000
 BRILLOUIN|   337           0.00049       -0.41406       -0.24219        0.00000
 BRILLOUIN|   338           0.00049       -0.41406       -0.22656        0.00000
 BRILLOUIN|   339           0.00049       -0.41406       -0.21094        0.00000
 BRILLOUIN|   340           0.00049       -0.41406       -0.19531        0.00000
 BRILLOUIN|   341           0.00049       -0.41406       -0.17969        0.00000
 BRILLOUIN|   342           0.00049       -0.41406       -0.16406        0.00000
 BRILLOUIN|   343           0.00049       -0.41406       -0.14844        0.00000
 BRILLOUIN|   344           0.00049       -0.41406       -0.13281        0.00000
 BRILLOUIN|   345           0.00049       -0.41406       -0.11719        0.00000
 BRILLOUIN|   346           0.00049       -0.41406       -0.10156        0.00000
 BRILLOUIN|   347           0.00049       -0.41406       -0.08594        0.00000
 BRILLOUIN|   348           0.00049       -0.41406       -0.07031        0.00000
 BRILLOUIN|   349           0.00049       -0.41406       -0.05469        0.00000
 BRILLOUIN|   350           0.00049       -0.41406       -0.03906        0.00000
 BRILLOUIN|   351           0.00049       -0.41406       -0.02344        0.00000
 BRILLOUIN|   352           0.00049       -0.41406       -0.00781        0.00000
 BRILLOUIN|   353           0.00049       -0.41406        0.00781        0.00000
 BRILLOUIN|   354           0.00049       -0.41406        0.02344        0.00000
 BRILLOUIN|   355           0.00049       -0.41406        0.03906        0.00000
 BRILLOUIN|   356           0.00049       -0.41406        0.05469        0.00000
 BRILLOUIN|   357           0.00049       -0.41406        0.07031        0.00000
 BRILLOUIN|   358           0.00049       -0.41406        0.08594        0.00000
 BRILLOUIN|   359           0.00049       -0.41406        0.10156        0.00000
 BRILLOUIN|   360           0.00049       -0.41406        0.11719        0.00000
 BRILLOUIN|   361           0.00049       -0.41406        0.13281        0.00000
 BRILLOUIN|   362           0.00049       -0.41406        0.14844        0.00000
 BRILLOUIN|   363           0.00049       -0.41406        0.16406        0.00000
 BRILLOUIN|   364           0.00049       -0.41406        0.17969        0.00000
 BRILLOUIN|   365           0.00049       -0.41406        0.19531        0.00000
 BRILLOUIN|   366           0.00049       -0.41406        0.21094        0.00000
 BRILLOUIN|   367           0.00049       -0.41406        0.22656        0.00000
 BRILLOUIN|   368           0.00049       -0.41406        0.24219        0.00000
 BRILLOUIN|   369           0.00049       -0.41406        0.25781        0.00000
 BRILLOUIN|   370           0.00049       -0.41406        0.27344        0.00000
 BRILLOUIN|   371           0.00049       -0.41406        0.28906        0.00000
 BRILLOUIN|   372           0.00049       -0.41406        0.30469        0.00000
 BRILLOUIN|   373           0.00049       -0.41406        0.32031        0.00000
 BRILLOUIN|   374           0.00049       -0.41406        0.33594        0.00000
 BRILLOUIN|   375           0.00049       -0.41406        0.35156        0.00000
 BRILLOUIN|   376           0.00049       -0.41406        0.36719        0.00000
 BRILLOUIN|   377           0.00049       -0.41406        0.38281        0.00000
 BRILLOUIN|   378           0.00049       -0.41406        0.39844        0.00000
 BRILLOUIN|   379           0.00049       -0.41406        0.41406        0.00000
 BRILLOUIN|   380           0.00049       -0.41406        0.42969        0.00000
 BRILLOUIN|   381           0.00049       -0.41406        0.44531        0.00000
 BRILLOUIN|   382           0.00049       -0.41406        0.46094        0.00000
 BRILLOUIN|   383           0.00049       -0.41406        0.47656        0.00000
 BRILLOUIN|   384           0.00049       -0.41406        0.49219        0.00000
 BRILLOUIN|   385           0.00049       -0.39844       -0.49219        0.00000
 BRILLOUIN|   386           0.00049       -0.39844       -0.47656        0.00000
 BRILLOUIN|   387           0.00049       -0.39844       -0.46094        0.00000
 BRILLOUIN|   388           0.00049       -0.39844       -0.44531        0.00000
 BRILLOUIN|   389           0.00049       -0.39844       -0.42969        0.00000
 BRILLOUIN|   390           0.00049       -0.39844       -0.41406        0.00000
 BRILLOUIN|   391           0.00049       -0.39844       -0.39844        0.00000
 BRILLOUIN|   392           0.00049       -0.39844       -0.38281        0.00000
 BRILLOUIN|   393           0.00049       -0.39844       -0.36719        0.00000
 BRILLOUIN|   394           0.00049       -0.39844       -0.35156        0.00000
 BRILLOUIN|   395           0.00049       -0.39844       -0.33594        0.00000
 BRILLOUIN|   396           0.00049       -0.39844       -0.32031        0.00000
 BRILLOUIN|   397           0.00049       -0.39844       -0.30469        0.00000
 BRILLOUIN|   398           0.00049       -0.39844       -0.28906        0.00000
 BRILLOUIN|   399           0.00049       -0.39844       -0.27344        0.00000
 BRILLOUIN|   400           0.00049       -0.39844       -0.25781        0.00000
 BRILLOUIN|   401           0.00049       -0.39844       -0.24219        0.00000
 BRILLOUIN|   402           0.00049       -0.39844       -0.22656        0.00000
 BRILLOUIN|   403           0.00049       -0.39844       -0.21094        0.00000
 BRILLOUIN|   404           0.00049       -0.39844       -0.19531        0.00000
 BRILLOUIN|   405           0.00049       -0.39844       -0.17969        0.00000
 BRILLOUIN|   406           0.00049       -0.39844       -0.16406        0.00000
 BRILLOUIN|   407           0.00049       -0.39844       -0.14844        0.00000
 BRILLOUIN|   408           0.00049       -0.39844       -0.13281        0.00000
 BRILLOUIN|   409           0.00049       -0.39844       -0.11719        0.00000
 BRILLOUIN|   410           0.00049       -0.39844       -0.10156        0.00000
 BRILLOUIN|   411           0.00049       -0.39844       -0.08594        0.00000
 BRILLOUIN|   412           0.00049       -0.39844       -0.07031        0.00000
 BRILLOUIN|   413           0.00049       -0.39844       -0.05469        0.00000
 BRILLOUIN|   414           0.00049       -0.39844       -0.03906        0.00000
 BRILLOUIN|   415           0.00049       -0.39844       -0.02344        0.00000
 BRILLOUIN|   416           0.00049       -0.39844       -0.00781        0.00000
 BRILLOUIN|   417           0.00049       -0.39844        0.00781        0.00000
 BRILLOUIN|   418           0.00049       -0.39844        0.02344        0.00000
 BRILLOUIN|   419           0.00049       -0.39844        0.03906        0.00000
 BRILLOUIN|   420           0.00049       -0.39844        0.05469        0.00000
 BRILLOUIN|   421           0.00049       -0.39844        0.07031        0.00000
 BRILLOUIN|   422           0.00049       -0.39844        0.08594        0.00000
 BRILLOUIN|   423           0.00049       -0.39844        0.10156        0.00000
 BRILLOUIN|   424           0.00049       -0.39844        0.11719        0.00000
 BRILLOUIN|   425           0.00049       -0.39844        0.13281        0.00000
 BRILLOUIN|   426           0.00049       -0.39844        0.14844        0.00000
 BRILLOUIN|   427           0.00049       -0.39844        0.16406        0.00000
 BRILLOUIN|   428           0.00049       -0.39844        0.17969        0.00000
 BRILLOUIN|   429           0.00049       -0.39844        0.19531        0.00000
 BRILLOUIN|   430           0.00049       -0.39844        0.21094        0.00000
 BRILLOUIN|   431           0.00049       -0.39844        0.22656        0.00000
 BRILLOUIN|   432           0.00049       -0.39844        0.24219        0.00000
 BRILLOUIN|   433           0.00049       -0.39844        0.25781        0.00000
 BRILLOUIN|   434           0.00049       -0.39844        0.27344        0.00000
 BRILLOUIN|   435           0.00049       -0.39844        0.28906        0.00000
 BRILLOUIN|   436           0.00049       -0.39844        0.30469        0.00000
 BRILLOUIN|   437           0.00049       -0.39844        0.32031        0.00000
 BRILLOUIN|   438           0.00049       -0.39844        0.33594        0.00000
 BRILLOUIN|   439           0.00049       -0.39844        0.35156        0.00000
 BRILLOUIN|   440           0.00049       -0.39844        0.36719        0.00000
 BRILLOUIN|   441           0.00049       -0.39844        0.38281        0.00000
 BRILLOUIN|   442           0.00049       -0.39844        0.39844        0.00000
 BRILLOUIN|   443           0.00049       -0.39844        0.41406        0.00000
 BRILLOUIN|   444           0.00049       -0.39844        0.42969        0.00000
 BRILLOUIN|   445           0.00049       -0.39844        0.44531        0.00000
 BRILLOUIN|   446           0.00049       -0.39844        0.46094        0.00000
 BRILLOUIN|   447           0.00049       -0.39844        0.47656        0.00000
 BRILLOUIN|   448           0.00049       -0.39844        0.49219        0.00000
 BRILLOUIN|   449           0.00049       -0.38281       -0.49219        0.00000
 BRILLOUIN|   450           0.00049       -0.38281       -0.47656        0.00000
 BRILLOUIN|   451           0.00049       -0.38281       -0.46094        0.00000
 BRILLOUIN|   452           0.00049       -0.38281       -0.44531        0.00000
 BRILLOUIN|   453           0.00049       -0.38281       -0.42969        0.00000
 BRILLOUIN|   454           0.00049       -0.38281       -0.41406        0.00000
 BRILLOUIN|   455           0.00049       -0.38281       -0.39844        0.00000
 BRILLOUIN|   456           0.00049       -0.38281       -0.38281        0.00000
 BRILLOUIN|   457           0.00049       -0.38281       -0.36719        0.00000
 BRILLOUIN|   458           0.00049       -0.38281       -0.35156        0.00000
 BRILLOUIN|   459           0.00049       -0.38281       -0.33594        0.00000
 BRILLOUIN|   460           0.00049       -0.38281       -0.32031        0.00000
 BRILLOUIN|   461           0.00049       -0.38281       -0.30469        0.00000
 BRILLOUIN|   462           0.00049       -0.38281       -0.28906        0.00000
 BRILLOUIN|   463           0.00049       -0.38281       -0.27344        0.00000
 BRILLOUIN|   464           0.00049       -0.38281       -0.25781        0.00000
 BRILLOUIN|   465           0.00049       -0.38281       -0.24219        0.00000
 BRILLOUIN|   466           0.00049       -0.38281       -0.22656        0.00000
 BRILLOUIN|   467           0.00049       -0.38281       -0.21094        0.00000
 BRILLOUIN|   468           0.00049       -0.38281       -0.19531        0.00000
 BRILLOUIN|   469           0.00049       -0.38281       -0.17969        0.00000
 BRILLOUIN|   470           0.00049       -0.38281       -0.16406        0.00000
 BRILLOUIN|   471           0.00049       -0.38281       -0.14844        0.00000
 BRILLOUIN|   472           0.00049       -0.38281       -0.13281        0.00000
 BRILLOUIN|   473           0.00049       -0.38281       -0.11719        0.00000
 BRILLOUIN|   474           0.00049       -0.38281       -0.10156        0.00000
 BRILLOUIN|   475           0.00049       -0.38281       -0.08594        0.00000
 BRILLOUIN|   476           0.00049       -0.38281       -0.07031        0.00000
 BRILLOUIN|   477           0.00049       -0.38281       -0.05469        0.00000
 BRILLOUIN|   478           0.00049       -0.38281       -0.03906        0.00000
 BRILLOUIN|   479           0.00049       -0.38281       -0.02344        0.00000
 BRILLOUIN|   480           0.00049       -0.38281       -0.00781        0.00000
 BRILLOUIN|   481           0.00049       -0.38281        0.00781        0.00000
 BRILLOUIN|   482           0.00049       -0.38281        0.02344        0.00000
 BRILLOUIN|   483           0.00049       -0.38281        0.03906        0.00000
 BRILLOUIN|   484           0.00049       -0.38281        0.05469        0.00000
 BRILLOUIN|   485           0.00049       -0.38281        0.07031        0.00000
 BRILLOUIN|   486           0.00049       -0.38281        0.08594        0.00000
 BRILLOUIN|   487           0.00049       -0.38281        0.10156        0.00000
 BRILLOUIN|   488           0.00049       -0.38281        0.11719        0.00000
 BRILLOUIN|   489           0.00049       -0.38281        0.13281        0.00000
 BRILLOUIN|   490           0.00049       -0.38281        0.14844        0.00000
 BRILLOUIN|   491           0.00049       -0.38281        0.16406        0.00000
 BRILLOUIN|   492           0.00049       -0.38281        0.17969        0.00000
 BRILLOUIN|   493           0.00049       -0.38281        0.19531        0.00000
 BRILLOUIN|   494           0.00049       -0.38281        0.21094        0.00000
 BRILLOUIN|   495           0.00049       -0.38281        0.22656        0.00000
 BRILLOUIN|   496           0.00049       -0.38281        0.24219        0.00000
 BRILLOUIN|   497           0.00049       -0.38281        0.25781        0.00000
 BRILLOUIN|   498           0.00049       -0.38281        0.27344        0.00000
 BRILLOUIN|   499           0.00049       -0.38281        0.28906        0.00000
 BRILLOUIN|   500           0.00049       -0.38281        0.30469        0.00000
 BRILLOUIN|   501           0.00049       -0.38281        0.32031        0.00000
 BRILLOUIN|   502           0.00049       -0.38281        0.33594        0.00000
 BRILLOUIN|   503           0.00049       -0.38281        0.35156        0.00000
 BRILLOUIN|   504           0.00049       -0.38281        0.36719        0.00000
 BRILLOUIN|   505           0.00049       -0.38281        0.38281        0.00000
 BRILLOUIN|   506           0.00049       -0.38281        0.39844        0.00000
 BRILLOUIN|   507           0.00049       -0.38281        0.41406        0.00000
 BRILLOUIN|   508           0.00049       -0.38281        0.42969        0.00000
 BRILLOUIN|   509           0.00049       -0.38281        0.44531        0.00000
 BRILLOUIN|   510           0.00049       -0.38281        0.46094        0.00000
 BRILLOUIN|   511           0.00049       -0.38281        0.47656        0.00000
 BRILLOUIN|   512           0.00049       -0.38281        0.49219        0.00000
 BRILLOUIN|   513           0.00049       -0.36719       -0.49219        0.00000
 BRILLOUIN|   514           0.00049       -0.36719       -0.47656        0.00000
 BRILLOUIN|   515           0.00049       -0.36719       -0.46094        0.00000
 BRILLOUIN|   516           0.00049       -0.36719       -0.44531        0.00000
 BRILLOUIN|   517           0.00049       -0.36719       -0.42969        0.00000
 BRILLOUIN|   518           0.00049       -0.36719       -0.41406        0.00000
 BRILLOUIN|   519           0.00049       -0.36719       -0.39844        0.00000
 BRILLOUIN|   520           0.00049       -0.36719       -0.38281        0.00000
 BRILLOUIN|   521           0.00049       -0.36719       -0.36719        0.00000
 BRILLOUIN|   522           0.00049       -0.36719       -0.35156        0.00000
 BRILLOUIN|   523           0.00049       -0.36719       -0.33594        0.00000
 BRILLOUIN|   524           0.00049       -0.36719       -0.32031        0.00000
 BRILLOUIN|   525           0.00049       -0.36719       -0.30469        0.00000
 BRILLOUIN|   526           0.00049       -0.36719       -0.28906        0.00000
 BRILLOUIN|   527           0.00049       -0.36719       -0.27344        0.00000
 BRILLOUIN|   528           0.00049       -0.36719       -0.25781        0.00000
 BRILLOUIN|   529           0.00049       -0.36719       -0.24219        0.00000
 BRILLOUIN|   530           0.00049       -0.36719       -0.22656        0.00000
 BRILLOUIN|   531           0.00049       -0.36719       -0.21094        0.00000
 BRILLOUIN|   532           0.00049       -0.36719       -0.19531        0.00000
 BRILLOUIN|   533           0.00049       -0.36719       -0.17969        0.00000
 BRILLOUIN|   534           0.00049       -0.36719       -0.16406        0.00000
 BRILLOUIN|   535           0.00049       -0.36719       -0.14844        0.00000
 BRILLOUIN|   536           0.00049       -0.36719       -0.13281        0.00000
 BRILLOUIN|   537           0.00049       -0.36719       -0.11719        0.00000
 BRILLOUIN|   538           0.00049       -0.36719       -0.10156        0.00000
 BRILLOUIN|   539           0.00049       -0.36719       -0.08594        0.00000
 BRILLOUIN|   540           0.00049       -0.36719       -0.07031        0.00000
 BRILLOUIN|   541           0.00049       -0.36719       -0.05469        0.00000
 BRILLOUIN|   542           0.00049       -0.36719       -0.03906        0.00000
 BRILLOUIN|   543           0.00049       -0.36719       -0.02344        0.00000
 BRILLOUIN|   544           0.00049       -0.36719       -0.00781        0.00000
 BRILLOUIN|   545           0.00049       -0.36719        0.00781        0.00000
 BRILLOUIN|   546           0.00049       -0.36719        0.02344        0.00000
 BRILLOUIN|   547           0.00049       -0.36719        0.03906        0.00000
 BRILLOUIN|   548           0.00049       -0.36719        0.05469        0.00000
 BRILLOUIN|   549           0.00049       -0.36719        0.07031        0.00000
 BRILLOUIN|   550           0.00049       -0.36719        0.08594        0.00000
 BRILLOUIN|   551           0.00049       -0.36719        0.10156        0.00000
 BRILLOUIN|   552           0.00049       -0.36719        0.11719        0.00000
 BRILLOUIN|   553           0.00049       -0.36719        0.13281        0.00000
 BRILLOUIN|   554           0.00049       -0.36719        0.14844        0.00000
 BRILLOUIN|   555           0.00049       -0.36719        0.16406        0.00000
 BRILLOUIN|   556           0.00049       -0.36719        0.17969        0.00000
 BRILLOUIN|   557           0.00049       -0.36719        0.19531        0.00000
 BRILLOUIN|   558           0.00049       -0.36719        0.21094        0.00000
 BRILLOUIN|   559           0.00049       -0.36719        0.22656        0.00000
 BRILLOUIN|   560           0.00049       -0.36719        0.24219        0.00000
 BRILLOUIN|   561           0.00049       -0.36719        0.25781        0.00000
 BRILLOUIN|   562           0.00049       -0.36719        0.27344        0.00000
 BRILLOUIN|   563           0.00049       -0.36719        0.28906        0.00000
 BRILLOUIN|   564           0.00049       -0.36719        0.30469        0.00000
 BRILLOUIN|   565           0.00049       -0.36719        0.32031        0.00000
 BRILLOUIN|   566           0.00049       -0.36719        0.33594        0.00000
 BRILLOUIN|   567           0.00049       -0.36719        0.35156        0.00000
 BRILLOUIN|   568           0.00049       -0.36719        0.36719        0.00000
 BRILLOUIN|   569           0.00049       -0.36719        0.38281        0.00000
 BRILLOUIN|   570           0.00049       -0.36719        0.39844        0.00000
 BRILLOUIN|   571           0.00049       -0.36719        0.41406        0.00000
 BRILLOUIN|   572           0.00049       -0.36719        0.42969        0.00000
 BRILLOUIN|   573           0.00049       -0.36719        0.44531        0.00000
 BRILLOUIN|   574           0.00049       -0.36719        0.46094        0.00000
 BRILLOUIN|   575           0.00049       -0.36719        0.47656        0.00000
 BRILLOUIN|   576           0.00049       -0.36719        0.49219        0.00000
 BRILLOUIN|   577           0.00049       -0.35156       -0.49219        0.00000
 BRILLOUIN|   578           0.00049       -0.35156       -0.47656        0.00000
 BRILLOUIN|   579           0.00049       -0.35156       -0.46094        0.00000
 BRILLOUIN|   580           0.00049       -0.35156       -0.44531        0.00000
 BRILLOUIN|   581           0.00049       -0.35156       -0.42969        0.00000
 BRILLOUIN|   582           0.00049       -0.35156       -0.41406        0.00000
 BRILLOUIN|   583           0.00049       -0.35156       -0.39844        0.00000
 BRILLOUIN|   584           0.00049       -0.35156       -0.38281        0.00000
 BRILLOUIN|   585           0.00049       -0.35156       -0.36719        0.00000
 BRILLOUIN|   586           0.00049       -0.35156       -0.35156        0.00000
 BRILLOUIN|   587           0.00049       -0.35156       -0.33594        0.00000
 BRILLOUIN|   588           0.00049       -0.35156       -0.32031        0.00000
 BRILLOUIN|   589           0.00049       -0.35156       -0.30469        0.00000
 BRILLOUIN|   590           0.00049       -0.35156       -0.28906        0.00000
 BRILLOUIN|   591           0.00049       -0.35156       -0.27344        0.00000
 BRILLOUIN|   592           0.00049       -0.35156       -0.25781        0.00000
 BRILLOUIN|   593           0.00049       -0.35156       -0.24219        0.00000
 BRILLOUIN|   594           0.00049       -0.35156       -0.22656        0.00000
 BRILLOUIN|   595           0.00049       -0.35156       -0.21094        0.00000
 BRILLOUIN|   596           0.00049       -0.35156       -0.19531        0.00000
 BRILLOUIN|   597           0.00049       -0.35156       -0.17969        0.00000
 BRILLOUIN|   598           0.00049       -0.35156       -0.16406        0.00000
 BRILLOUIN|   599           0.00049       -0.35156       -0.14844        0.00000
 BRILLOUIN|   600           0.00049       -0.35156       -0.13281        0.00000
 BRILLOUIN|   601           0.00049       -0.35156       -0.11719        0.00000
 BRILLOUIN|   602           0.00049       -0.35156       -0.10156        0.00000
 BRILLOUIN|   603           0.00049       -0.35156       -0.08594        0.00000
 BRILLOUIN|   604           0.00049       -0.35156       -0.07031        0.00000
 BRILLOUIN|   605           0.00049       -0.35156       -0.05469        0.00000
 BRILLOUIN|   606           0.00049       -0.35156       -0.03906        0.00000
 BRILLOUIN|   607           0.00049       -0.35156       -0.02344        0.00000
 BRILLOUIN|   608           0.00049       -0.35156       -0.00781        0.00000
 BRILLOUIN|   609           0.00049       -0.35156        0.00781        0.00000
 BRILLOUIN|   610           0.00049       -0.35156        0.02344        0.00000
 BRILLOUIN|   611           0.00049       -0.35156        0.03906        0.00000
 BRILLOUIN|   612           0.00049       -0.35156        0.05469        0.00000
 BRILLOUIN|   613           0.00049       -0.35156        0.07031        0.00000
 BRILLOUIN|   614           0.00049       -0.35156        0.08594        0.00000
 BRILLOUIN|   615           0.00049       -0.35156        0.10156        0.00000
 BRILLOUIN|   616           0.00049       -0.35156        0.11719        0.00000
 BRILLOUIN|   617           0.00049       -0.35156        0.13281        0.00000
 BRILLOUIN|   618           0.00049       -0.35156        0.14844        0.00000
 BRILLOUIN|   619           0.00049       -0.35156        0.16406        0.00000
 BRILLOUIN|   620           0.00049       -0.35156        0.17969        0.00000
 BRILLOUIN|   621           0.00049       -0.35156        0.19531        0.00000
 BRILLOUIN|   622           0.00049       -0.35156        0.21094        0.00000
 BRILLOUIN|   623           0.00049       -0.35156        0.22656        0.00000
 BRILLOUIN|   624           0.00049       -0.35156        0.24219        0.00000
 BRILLOUIN|   625           0.00049       -0.35156        0.25781        0.00000
 BRILLOUIN|   626           0.00049       -0.35156        0.27344        0.00000
 BRILLOUIN|   627           0.00049       -0.35156        0.28906        0.00000
 BRILLOUIN|   628           0.00049       -0.35156        0.30469        0.00000
 BRILLOUIN|   629           0.00049       -0.35156        0.32031        0.00000
 BRILLOUIN|   630           0.00049       -0.35156        0.33594        0.00000
 BRILLOUIN|   631           0.00049       -0.35156        0.35156        0.00000
 BRILLOUIN|   632           0.00049       -0.35156        0.36719        0.00000
 BRILLOUIN|   633           0.00049       -0.35156        0.38281        0.00000
 BRILLOUIN|   634           0.00049       -0.35156        0.39844        0.00000
 BRILLOUIN|   635           0.00049       -0.35156        0.41406        0.00000
 BRILLOUIN|   636           0.00049       -0.35156        0.42969        0.00000
 BRILLOUIN|   637           0.00049       -0.35156        0.44531        0.00000
 BRILLOUIN|   638           0.00049       -0.35156        0.46094        0.00000
 BRILLOUIN|   639           0.00049       -0.35156        0.47656        0.00000
 BRILLOUIN|   640           0.00049       -0.35156        0.49219        0.00000
 BRILLOUIN|   641           0.00049       -0.33594       -0.49219        0.00000
 BRILLOUIN|   642           0.00049       -0.33594       -0.47656        0.00000
 BRILLOUIN|   643           0.00049       -0.33594       -0.46094        0.00000
 BRILLOUIN|   644           0.00049       -0.33594       -0.44531        0.00000
 BRILLOUIN|   645           0.00049       -0.33594       -0.42969        0.00000
 BRILLOUIN|   646           0.00049       -0.33594       -0.41406        0.00000
 BRILLOUIN|   647           0.00049       -0.33594       -0.39844        0.00000
 BRILLOUIN|   648           0.00049       -0.33594       -0.38281        0.00000
 BRILLOUIN|   649           0.00049       -0.33594       -0.36719        0.00000
 BRILLOUIN|   650           0.00049       -0.33594       -0.35156        0.00000
 BRILLOUIN|   651           0.00049       -0.33594       -0.33594        0.00000
 BRILLOUIN|   652           0.00049       -0.33594       -0.32031        0.00000
 BRILLOUIN|   653           0.00049       -0.33594       -0.30469        0.00000
 BRILLOUIN|   654           0.00049       -0.33594       -0.28906        0.00000
 BRILLOUIN|   655           0.00049       -0.33594       -0.27344        0.00000
 BRILLOUIN|   656           0.00049       -0.33594       -0.25781        0.00000
 BRILLOUIN|   657           0.00049       -0.33594       -0.24219        0.00000
 BRILLOUIN|   658           0.00049       -0.33594       -0.22656        0.00000
 BRILLOUIN|   659           0.00049       -0.33594       -0.21094        0.00000
 BRILLOUIN|   660           0.00049       -0.33594       -0.19531        0.00000
 BRILLOUIN|   661           0.00049       -0.33594       -0.17969        0.00000
 BRILLOUIN|   662           0.00049       -0.33594       -0.16406        0.00000
 BRILLOUIN|   663           0.00049       -0.33594       -0.14844        0.00000
 BRILLOUIN|   664           0.00049       -0.33594       -0.13281        0.00000
 BRILLOUIN|   665           0.00049       -0.33594       -0.11719        0.00000
 BRILLOUIN|   666           0.00049       -0.33594       -0.10156        0.00000
 BRILLOUIN|   667           0.00049       -0.33594       -0.08594        0.00000
 BRILLOUIN|   668           0.00049       -0.33594       -0.07031        0.00000
 BRILLOUIN|   669           0.00049       -0.33594       -0.05469        0.00000
 BRILLOUIN|   670           0.00049       -0.33594       -0.03906        0.00000
 BRILLOUIN|   671           0.00049       -0.33594       -0.02344        0.00000
 BRILLOUIN|   672           0.00049       -0.33594       -0.00781        0.00000
 BRILLOUIN|   673           0.00049       -0.33594        0.00781        0.00000
 BRILLOUIN|   674           0.00049       -0.33594        0.02344        0.00000
 BRILLOUIN|   675           0.00049       -0.33594        0.03906        0.00000
 BRILLOUIN|   676           0.00049       -0.33594        0.05469        0.00000
 BRILLOUIN|   677           0.00049       -0.33594        0.07031        0.00000
 BRILLOUIN|   678           0.00049       -0.33594        0.08594        0.00000
 BRILLOUIN|   679           0.00049       -0.33594        0.10156        0.00000
 BRILLOUIN|   680           0.00049       -0.33594        0.11719        0.00000
 BRILLOUIN|   681           0.00049       -0.33594        0.13281        0.00000
 BRILLOUIN|   682           0.00049       -0.33594        0.14844        0.00000
 BRILLOUIN|   683           0.00049       -0.33594        0.16406        0.00000
 BRILLOUIN|   684           0.00049       -0.33594        0.17969        0.00000
 BRILLOUIN|   685           0.00049       -0.33594        0.19531        0.00000
 BRILLOUIN|   686           0.00049       -0.33594        0.21094        0.00000
 BRILLOUIN|   687           0.00049       -0.33594        0.22656        0.00000
 BRILLOUIN|   688           0.00049       -0.33594        0.24219        0.00000
 BRILLOUIN|   689           0.00049       -0.33594        0.25781        0.00000
 BRILLOUIN|   690           0.00049       -0.33594        0.27344        0.00000
 BRILLOUIN|   691           0.00049       -0.33594        0.28906        0.00000
 BRILLOUIN|   692           0.00049       -0.33594        0.30469        0.00000
 BRILLOUIN|   693           0.00049       -0.33594        0.32031        0.00000
 BRILLOUIN|   694           0.00049       -0.33594        0.33594        0.00000
 BRILLOUIN|   695           0.00049       -0.33594        0.35156        0.00000
 BRILLOUIN|   696           0.00049       -0.33594        0.36719        0.00000
 BRILLOUIN|   697           0.00049       -0.33594        0.38281        0.00000
 BRILLOUIN|   698           0.00049       -0.33594        0.39844        0.00000
 BRILLOUIN|   699           0.00049       -0.33594        0.41406        0.00000
 BRILLOUIN|   700           0.00049       -0.33594        0.42969        0.00000
 BRILLOUIN|   701           0.00049       -0.33594        0.44531        0.00000
 BRILLOUIN|   702           0.00049       -0.33594        0.46094        0.00000
 BRILLOUIN|   703           0.00049       -0.33594        0.47656        0.00000
 BRILLOUIN|   704           0.00049       -0.33594        0.49219        0.00000
 BRILLOUIN|   705           0.00049       -0.32031       -0.49219        0.00000
 BRILLOUIN|   706           0.00049       -0.32031       -0.47656        0.00000
 BRILLOUIN|   707           0.00049       -0.32031       -0.46094        0.00000
 BRILLOUIN|   708           0.00049       -0.32031       -0.44531        0.00000
 BRILLOUIN|   709           0.00049       -0.32031       -0.42969        0.00000
 BRILLOUIN|   710           0.00049       -0.32031       -0.41406        0.00000
 BRILLOUIN|   711           0.00049       -0.32031       -0.39844        0.00000
 BRILLOUIN|   712           0.00049       -0.32031       -0.38281        0.00000
 BRILLOUIN|   713           0.00049       -0.32031       -0.36719        0.00000
 BRILLOUIN|   714           0.00049       -0.32031       -0.35156        0.00000
 BRILLOUIN|   715           0.00049       -0.32031       -0.33594        0.00000
 BRILLOUIN|   716           0.00049       -0.32031       -0.32031        0.00000
 BRILLOUIN|   717           0.00049       -0.32031       -0.30469        0.00000
 BRILLOUIN|   718           0.00049       -0.32031       -0.28906        0.00000
 BRILLOUIN|   719           0.00049       -0.32031       -0.27344        0.00000
 BRILLOUIN|   720           0.00049       -0.32031       -0.25781        0.00000
 BRILLOUIN|   721           0.00049       -0.32031       -0.24219        0.00000
 BRILLOUIN|   722           0.00049       -0.32031       -0.22656        0.00000
 BRILLOUIN|   723           0.00049       -0.32031       -0.21094        0.00000
 BRILLOUIN|   724           0.00049       -0.32031       -0.19531        0.00000
 BRILLOUIN|   725           0.00049       -0.32031       -0.17969        0.00000
 BRILLOUIN|   726           0.00049       -0.32031       -0.16406        0.00000
 BRILLOUIN|   727           0.00049       -0.32031       -0.14844        0.00000
 BRILLOUIN|   728           0.00049       -0.32031       -0.13281        0.00000
 BRILLOUIN|   729           0.00049       -0.32031       -0.11719        0.00000
 BRILLOUIN|   730           0.00049       -0.32031       -0.10156        0.00000
 BRILLOUIN|   731           0.00049       -0.32031       -0.08594        0.00000
 BRILLOUIN|   732           0.00049       -0.32031       -0.07031        0.00000
 BRILLOUIN|   733           0.00049       -0.32031       -0.05469        0.00000
 BRILLOUIN|   734           0.00049       -0.32031       -0.03906        0.00000
 BRILLOUIN|   735           0.00049       -0.32031       -0.02344        0.00000
 BRILLOUIN|   736           0.00049       -0.32031       -0.00781        0.00000
 BRILLOUIN|   737           0.00049       -0.32031        0.00781        0.00000
 BRILLOUIN|   738           0.00049       -0.32031        0.02344        0.00000
 BRILLOUIN|   739           0.00049       -0.32031        0.03906        0.00000
 BRILLOUIN|   740           0.00049       -0.32031        0.05469        0.00000
 BRILLOUIN|   741           0.00049       -0.32031        0.07031        0.00000
 BRILLOUIN|   742           0.00049       -0.32031        0.08594        0.00000
 BRILLOUIN|   743           0.00049       -0.32031        0.10156        0.00000
 BRILLOUIN|   744           0.00049       -0.32031        0.11719        0.00000
 BRILLOUIN|   745           0.00049       -0.32031        0.13281        0.00000
 BRILLOUIN|   746           0.00049       -0.32031        0.14844        0.00000
 BRILLOUIN|   747           0.00049       -0.32031        0.16406        0.00000
 BRILLOUIN|   748           0.00049       -0.32031        0.17969        0.00000
 BRILLOUIN|   749           0.00049       -0.32031        0.19531        0.00000
 BRILLOUIN|   750           0.00049       -0.32031        0.21094        0.00000
 BRILLOUIN|   751           0.00049       -0.32031        0.22656        0.00000
 BRILLOUIN|   752           0.00049       -0.32031        0.24219        0.00000
 BRILLOUIN|   753           0.00049       -0.32031        0.25781        0.00000
 BRILLOUIN|   754           0.00049       -0.32031        0.27344        0.00000
 BRILLOUIN|   755           0.00049       -0.32031        0.28906        0.00000
 BRILLOUIN|   756           0.00049       -0.32031        0.30469        0.00000
 BRILLOUIN|   757           0.00049       -0.32031        0.32031        0.00000
 BRILLOUIN|   758           0.00049       -0.32031        0.33594        0.00000
 BRILLOUIN|   759           0.00049       -0.32031        0.35156        0.00000
 BRILLOUIN|   760           0.00049       -0.32031        0.36719        0.00000
 BRILLOUIN|   761           0.00049       -0.32031        0.38281        0.00000
 BRILLOUIN|   762           0.00049       -0.32031        0.39844        0.00000
 BRILLOUIN|   763           0.00049       -0.32031        0.41406        0.00000
 BRILLOUIN|   764           0.00049       -0.32031        0.42969        0.00000
 BRILLOUIN|   765           0.00049       -0.32031        0.44531        0.00000
 BRILLOUIN|   766           0.00049       -0.32031        0.46094        0.00000
 BRILLOUIN|   767           0.00049       -0.32031        0.47656        0.00000
 BRILLOUIN|   768           0.00049       -0.32031        0.49219        0.00000
 BRILLOUIN|   769           0.00049       -0.30469       -0.49219        0.00000
 BRILLOUIN|   770           0.00049       -0.30469       -0.47656        0.00000
 BRILLOUIN|   771           0.00049       -0.30469       -0.46094        0.00000
 BRILLOUIN|   772           0.00049       -0.30469       -0.44531        0.00000
 BRILLOUIN|   773           0.00049       -0.30469       -0.42969        0.00000
 BRILLOUIN|   774           0.00049       -0.30469       -0.41406        0.00000
 BRILLOUIN|   775           0.00049       -0.30469       -0.39844        0.00000
 BRILLOUIN|   776           0.00049       -0.30469       -0.38281        0.00000
 BRILLOUIN|   777           0.00049       -0.30469       -0.36719        0.00000
 BRILLOUIN|   778           0.00049       -0.30469       -0.35156        0.00000
 BRILLOUIN|   779           0.00049       -0.30469       -0.33594        0.00000
 BRILLOUIN|   780           0.00049       -0.30469       -0.32031        0.00000
 BRILLOUIN|   781           0.00049       -0.30469       -0.30469        0.00000
 BRILLOUIN|   782           0.00049       -0.30469       -0.28906        0.00000
 BRILLOUIN|   783           0.00049       -0.30469       -0.27344        0.00000
 BRILLOUIN|   784           0.00049       -0.30469       -0.25781        0.00000
 BRILLOUIN|   785           0.00049       -0.30469       -0.24219        0.00000
 BRILLOUIN|   786           0.00049       -0.30469       -0.22656        0.00000
 BRILLOUIN|   787           0.00049       -0.30469       -0.21094        0.00000
 BRILLOUIN|   788           0.00049       -0.30469       -0.19531        0.00000
 BRILLOUIN|   789           0.00049       -0.30469       -0.17969        0.00000
 BRILLOUIN|   790           0.00049       -0.30469       -0.16406        0.00000
 BRILLOUIN|   791           0.00049       -0.30469       -0.14844        0.00000
 BRILLOUIN|   792           0.00049       -0.30469       -0.13281        0.00000
 BRILLOUIN|   793           0.00049       -0.30469       -0.11719        0.00000
 BRILLOUIN|   794           0.00049       -0.30469       -0.10156        0.00000
 BRILLOUIN|   795           0.00049       -0.30469       -0.08594        0.00000
 BRILLOUIN|   796           0.00049       -0.30469       -0.07031        0.00000
 BRILLOUIN|   797           0.00049       -0.30469       -0.05469        0.00000
 BRILLOUIN|   798           0.00049       -0.30469       -0.03906        0.00000
 BRILLOUIN|   799           0.00049       -0.30469       -0.02344        0.00000
 BRILLOUIN|   800           0.00049       -0.30469       -0.00781        0.00000
 BRILLOUIN|   801           0.00049       -0.30469        0.00781        0.00000
 BRILLOUIN|   802           0.00049       -0.30469        0.02344        0.00000
 BRILLOUIN|   803           0.00049       -0.30469        0.03906        0.00000
 BRILLOUIN|   804           0.00049       -0.30469        0.05469        0.00000
 BRILLOUIN|   805           0.00049       -0.30469        0.07031        0.00000
 BRILLOUIN|   806           0.00049       -0.30469        0.08594        0.00000
 BRILLOUIN|   807           0.00049       -0.30469        0.10156        0.00000
 BRILLOUIN|   808           0.00049       -0.30469        0.11719        0.00000
 BRILLOUIN|   809           0.00049       -0.30469        0.13281        0.00000
 BRILLOUIN|   810           0.00049       -0.30469        0.14844        0.00000
 BRILLOUIN|   811           0.00049       -0.30469        0.16406        0.00000
 BRILLOUIN|   812           0.00049       -0.30469        0.17969        0.00000
 BRILLOUIN|   813           0.00049       -0.30469        0.19531        0.00000
 BRILLOUIN|   814           0.00049       -0.30469        0.21094        0.00000
 BRILLOUIN|   815           0.00049       -0.30469        0.22656        0.00000
 BRILLOUIN|   816           0.00049       -0.30469        0.24219        0.00000
 BRILLOUIN|   817           0.00049       -0.30469        0.25781        0.00000
 BRILLOUIN|   818           0.00049       -0.30469        0.27344        0.00000
 BRILLOUIN|   819           0.00049       -0.30469        0.28906        0.00000
 BRILLOUIN|   820           0.00049       -0.30469        0.30469        0.00000
 BRILLOUIN|   821           0.00049       -0.30469        0.32031        0.00000
 BRILLOUIN|   822           0.00049       -0.30469        0.33594        0.00000
 BRILLOUIN|   823           0.00049       -0.30469        0.35156        0.00000
 BRILLOUIN|   824           0.00049       -0.30469        0.36719        0.00000
 BRILLOUIN|   825           0.00049       -0.30469        0.38281        0.00000
 BRILLOUIN|   826           0.00049       -0.30469        0.39844        0.00000
 BRILLOUIN|   827           0.00049       -0.30469        0.41406        0.00000
 BRILLOUIN|   828           0.00049       -0.30469        0.42969        0.00000
 BRILLOUIN|   829           0.00049       -0.30469        0.44531        0.00000
 BRILLOUIN|   830           0.00049       -0.30469        0.46094        0.00000
 BRILLOUIN|   831           0.00049       -0.30469        0.47656        0.00000
 BRILLOUIN|   832           0.00049       -0.30469        0.49219        0.00000
 BRILLOUIN|   833           0.00049       -0.28906       -0.49219        0.00000
 BRILLOUIN|   834           0.00049       -0.28906       -0.47656        0.00000
 BRILLOUIN|   835           0.00049       -0.28906       -0.46094        0.00000
 BRILLOUIN|   836           0.00049       -0.28906       -0.44531        0.00000
 BRILLOUIN|   837           0.00049       -0.28906       -0.42969        0.00000
 BRILLOUIN|   838           0.00049       -0.28906       -0.41406        0.00000
 BRILLOUIN|   839           0.00049       -0.28906       -0.39844        0.00000
 BRILLOUIN|   840           0.00049       -0.28906       -0.38281        0.00000
 BRILLOUIN|   841           0.00049       -0.28906       -0.36719        0.00000
 BRILLOUIN|   842           0.00049       -0.28906       -0.35156        0.00000
 BRILLOUIN|   843           0.00049       -0.28906       -0.33594        0.00000
[...]
 -------------------------------------------------------------------------------
 count for grid        1:        1619779          cutoff [a.u.]          250.00
 count for grid        2:         938706          cutoff [a.u.]           83.33
 count for grid        3:         718909          cutoff [a.u.]           27.78
 count for grid        4:         146132          cutoff [a.u.]            9.26
 total gridlevel count  :        3423526

 -------------------------------------------------------------------------------
 -                                                                             -
 -                         MESSAGE PASSING PERFORMANCE                         -
 -                                                                             -
 -------------------------------------------------------------------------------

 ROUTINE             CALLS      AVE VOLUME [Bytes]
 MP_Group         22309999
 MP_Bcast         17001050                    163.
 MP_Allreduce     40600215                  22228.
 MP_Sync          39392926
 MP_Alltoall      17984494                   1154.
 MP_SendRecv         32258                  14600.
 MP_ISendRecv        33147                  14400.
 MP_Wait           5582421
 MP_comm_split    13387870
 MP_ISend        129738108                   9173.
 MP_IRecv         13414192                   5697.
 -------------------------------------------------------------------------------


 -------------------------------------------------------------------------------
 -                                                                             -
 -                           R E F E R E N C E S                               -
 -                                                                             -
 -------------------------------------------------------------------------------
 
 CP2K version 2025.2 (Development Version), the CP2K developers group (2025).
 CP2K is freely available from https://www.cp2k.org/ .
 
 M. Graml, K. Zollner, D. Hernangmez-Prez, P. E. Faria Junior, J. Wilhelm.
 J. Chem. Theory Comput. 20, 2202-2208 (2024).
 Low-scaling GW algorithm applied to twisted transition-metal dichalcogenide 
 heterobilayers.
 https://doi.org/10.1021/acs.jctc.3c01230

 T. D. Kuehne, M. Iannuzzi, M. Del Ben, V. V. Rybkin, P. Seewald, F. Stein, T. 
 Laino, R. Z. Khaliullin, O. Schuett, F. Schiffmann, D. Golze, J. Wilhelm, S. 
 Chulkov, M. H. Bani-Hashemian, V. Weber, U. Borstnik, M. Taillefumier, A. S. 
 Jakobovits, A. Lazzaro, H. Pabst, T. Mueller, R. Schade, M. Guidon, S. 
 Andermatt, N. Holmberg, G. K. Schenter, A. Hehn, A. Bussy, F. Belleflamme, G. 
 Tabacchi, A. Gloess, M. Lass, I. Bethune, C. J. Mundy, C. Plessl, M. Watkins, 
 J. VandeVondele, M. Krack, J. Hutter.
 J. Chem. Phys. 152, 194103 (2020).
 CP2K: An electronic structure and molecular dynamics software package - 
 Quickstep: Efficient and accurate electronic structure calculations.
 https://doi.org/10.1063/5.0007045

 A. Togo, I. Tanaka.
 arXiv, 1808.01590 (2018).
 Spglib : a software library for crystal symmetry search.

 O. Schuett, P. Messmer, J. Hutter, J. VandeVondele.
 Electronic Structure Calculations on Graphics Processing Units, 173-190 (2016).
 GPU-Accelerated Sparse Matrix-Matrix Multiplication for Linear Scaling Density 
 Functional Theory.
 https://doi.org/10.1002/9781118670712.ch8

 A. Heinecke, G. Henry, M. Hutchinson, H. Pabst.
 Proceedings of Intl. Supercomputing Conference, 981-991 (2016).
 LIBXSMM: Accelerating Small Matrix Multiplications by Runtime Code Generation.
 https://doi.org/10.1109/SC.2016.83

 J. Hutter, M. Iannuzzi, F. Schiffmann, J. VandeVondele.
 WIREs Comput Mol Sci. 4, 15-25 (2014).
 CP2K: atomistic simulations of condensed matter systems.
 https://doi.org/10.1002/wcms.1159

 U. Borstnik, J. VandeVondele, V. Weber, J. Hutter.
 Parallel Comput. 40, 47-58 (2014).
 Sparse matrix multiplication: The distributed block-compressed sparse row 
 library.
 https://doi.org/10.1016/j.parco.2014.03.012

 A. Marek, V. Blum, R. Johanni, V. Havu, B. Lang, T. Auckenthaler, A. Heinecke, 
 H. Bungartz, H. Lederer.
 J. Phys. Condens. Matter 26, 213201 (2014).
 The ELPA library: scalable parallel eigenvalue solutions for electronic 
 structure theory and computational science.
 https://doi.org/10.1088/0953-8984/26/21/213201

 J. VandeVondele, J. Hutter.
 J. Chem. Phys. 127, 114105 (2007).
 Gaussian basis sets for accurate calculations on molecular systems in gas and 
 condensed phases.
 https://doi.org/10.1063/1.2770708

 M. Krack.
 Theor. Chem. Acc. 114, 145-152 (2005).
 Pseudopotentials for H to Kr optimized for gradient-corrected 
 exchange-correlation functionals.
 https://doi.org/10.1007/s00214-005-0655-y

 M. Frigo, S. G. Johnson.
 Proc. IEEE 93, 216-231 (2005).
 The design and implementation of FFTW3.
 https://doi.org/10.1109/JPROC.2004.840301

 M. Krack, M. Parrinello.
 Phys. Chem. Chem. Phys. 2, 2105-2112 (2000).
 All-electron ab-initio molecular dynamics.
 https://doi.org/10.1039/b001167n

 G. Lippert, J. Hutter, M. Parrinello.
 Theor. Chem. Acc. 103, 124-140 (1999).
 The Gaussian and augmented-plane-wave density functional method for ab initio 
 molecular dynamics simulations.
 https://doi.org/10.1007/s002140050523

 C. Hartwigsen, S. Goedecker, J. Hutter.
 Phys. Rev. B 58, 3641-3662 (1998).
 Relativistic separable dual-space Gaussian pseudopotentials from H to Rn.
 https://doi.org/10.1103/PhysRevB.58.3641

 S. Goedecker, M. Teter, J. Hutter.
 Phys. Rev. B 54, 1703-1710 (1996).
 Separable dual-space Gaussian pseudopotentials.
 https://doi.org/10.1103/PhysRevB.54.1703

 J. P. Perdew, K. Burke, M. Ernzerhof.
 Phys. Rev. Lett. 77, 3865-3868 (1996).
 Generalized gradient approximation made simple.
 https://doi.org/10.1103/PhysRevLett.77.3865


 -------------------------------------------------------------------------------
 -                                                                             -
 -                                T I M I N G                                  -
 -                                                                             -
 -------------------------------------------------------------------------------
 SUBROUTINE                       CALLS  ASD         SELF TIME        TOTAL TIME
                                MAXIMUM       AVERAGE  MAXIMUM  AVERAGE  MAXIMUM
 CP2K                                 1  1.0      0.0      0.1 167103.5 167105.7
 qs_energies                          1  2.0      0.0      0.0 167034.0 167036.2
 qs_energies_properties               1  3.0      0.0      0.0 166538.7 166540.9
 post_scf_bandstructure               1  4.0      0.0      0.0 166538.7 166540.9
 gw                                   1  5.0      0.0      0.0 166312.6 166314.8
 gw_calc_small_cell_full_kp           1  6.0      0.0      0.0 165976.6 165978.8
 compute_W_real_space                 1  7.0     22.1     22.7 143661.6 143663.4
 mp_sum_dm3                        1044  9.0  78129.0  78133.8  78129.0  78133.8
 fm_to_local_array                  934  8.1    131.7    133.0  77949.8  77950.9
 compute_Minv_and_Vsqrt               1  8.0      0.3      0.3  61494.2  61495.3
 build_2c_coulomb_matrix_kp_sma       2  9.0     66.1    129.5  61338.8  61339.7
 build_2c_coulomb_matrix_kp_sma 2621440 10.0  58698.5  59182.7  58698.5  59182.7
 dbt_total                      9749457  9.6     17.5     18.8  13840.5  15996.7
 compute_chi                          1  7.0      0.1      0.2  15339.0  15339.3
 dbt_contract                   3859949 10.4     33.2     35.4  12814.8  14887.3
 dbt_tas_multiply               4762992 12.9      4.6      5.1  12455.3  14543.2
 dbt_tas_total                  4762992 13.9    174.3    187.0  12452.3  14540.4
 dbt_tas_estimate_result_nze    2381496 13.4    364.7    379.4   6654.3   8632.6
 G_times_3c                       22322  8.0     26.2     30.3   7009.6   8497.8
 mp_sync                        ******* 12.3   4571.8   7510.8   4571.8   7510.8
 compute_Sigma_c                      1  7.0      0.0      0.0   5183.7   5185.9
 contract_M_occ_vir_to_chi          110  8.0     63.0     71.5   3268.6   4469.4
 dbt_tas_dbm                    4762992 14.9      4.2      4.6   3793.1   4004.5
 dbm_multiply                   4762992 16.9   3784.0   3995.3   3784.0   3995.3
 convert_to_new_pgrid           ******* 14.9     28.5     30.8   3337.9   3890.9
 dbm_copy                       9525984 15.9   3309.5   3861.5   3309.5   3861.5
 dbm_reserve_blocks             ******* 16.5   2375.0   3673.4   2375.0   3673.4
 dbt_tas_reserve_blocks_index   ******* 15.7     13.0     13.9   1699.4   2885.5
 get_V_tr_R                          34  9.0      0.3      0.4   2862.5   2862.6
 G_occ_vir                          121  8.0      1.2      1.4   2772.8   2857.7
 mult_W_with_Minv                    30  8.0      1.9      2.0   2789.2   2789.2
 add_rs_to_ikp                  ******* -0.9   2444.8   2518.2   2444.8   2518.2
 fm_to_local_tensor              603288  9.0      5.2      5.6   2039.0   2343.8
 trafo_rs_to_ikp                  42944  8.1     64.3     71.6   2257.4   2309.9
 contract_to_Sigma                  200  8.0     51.8     57.5   2079.9   2202.4
 add_ikp_to_rs                  ******* -0.2   1994.3   2167.3   1994.3   2167.3
 dbt_tas_reserve_blocks_templat 7308090 14.0     12.4     13.5   1093.4   2047.6
 dbcsr_complete_redistribute    1753721  9.8     28.0     42.5   1654.2   2042.0
 contract_W                         104  8.0     15.2     17.0   1729.5   1939.4
 dbt_tas_mm_1N                  1262506 15.5      0.8      0.8   1749.6   1915.1
 mp_alltoall_i22                3155575 10.3   1483.0   1914.7   1483.0   1914.7
 add_ikp_to_all_rs                39392  8.0     56.9     63.3   1714.9   1876.8
 copy_fm_to_dbcsr                804203  9.5      1.6      1.8   1216.3   1621.5
 dbm_add                        4762992 14.9   1267.0   1588.3   1267.0   1588.3
 global_matrix_to_local_matrix   603288 10.0      6.0      9.6    652.1   1507.6
 dbt_tas_mm_2                   1460814 16.0      1.4      1.7   1137.0   1482.3
 dbt_copy                       6344056 10.9     25.7     28.5   1174.5   1459.4
 contract_to_Sigma_3c_x_G        942207  9.0      1.3      1.5   1226.5   1333.1
 send_data                       603288 11.0      0.4      0.4    456.5   1220.6
 communicate_buffer              603288 12.0      4.8     43.7    456.1   1220.2
 mp_sum_dm                      2621488 10.0   1088.4   1216.9   1088.4   1216.9
 reshape_mm_small               4762992 14.9    279.0    328.6    946.1   1169.9
 dbt_tas_reshape                5672088 15.5     26.7     28.2    846.2   1116.2
 mp_waitall_1                   4860063 11.4    452.9   1103.8    452.9   1103.8
 dbt_reshape                    4418002 11.8    620.4    800.5    785.7   1055.7
 fm_add_ikp_to_rs                495616  9.0    586.0    659.2    922.4   1040.2
 dbt_tas_mm_3T                  2257358 16.1      1.4      1.7    901.3    983.4
 compute_Sigma_x                      1  7.0      0.0      0.0    942.8    947.0
 contract_to_Sigma_contract       20134  9.0     23.3     26.3    772.1    897.3
 dbt_tas_reshape_buffer_obtain  5672088 16.5     80.2     90.2    604.8    868.9
 compute_QP_energies                  1  7.0      0.2      0.3    849.3    860.2
 trafo_to_k_and_nn               258884  8.0      1.0      1.1    848.6    859.5
 add_V_L                        1310720 10.0     26.1    840.6     26.1    840.6
 dbt_tas_replicate              4762992 14.9     78.6     84.1    710.4    821.5
 get_t_3c_int                   3087628  9.3      8.5      9.0    529.8    709.1
 parallel_gemm_cfm              1064312  8.9      0.7      0.9    482.2    705.1
 parallel_gemm_cfm_cosma        1064312  9.9    481.5    704.4    481.5    704.4
 copy_dbcsr_to_fm                949518  8.2      4.8      5.2    676.0    704.0
 dbt_destroy                    ******* 10.7    640.2    674.6    645.0    679.5
 fm_trafo_rs_to_ikp              258884  9.0    311.6    351.0    563.4    633.5
 destroy_t_1d                        98  8.0      0.7      0.8    560.4    584.2
 scf_env_do_scf                       1  3.0      0.0      0.0    495.0    495.1
 scf_env_do_scf_inner_loop           49  4.0      0.0      0.0    495.0    495.1
 qs_scf_new_mos_kp                   49  5.0      0.0      0.0    483.9    483.9
 do_general_diag_kp                  49  6.0      0.9      1.0    483.9    483.9
 local_dbt_to_global_fm              91  8.0      0.6      0.7    426.8    426.8
 dbcsr_desymmetrize_deep        1401854  8.6     10.9     12.6    328.1    363.7
 get_Minv_Vtr_Minv_R                  1  8.0      0.1      0.1    349.7    349.8
 mp_sum_dv                       284500  8.9     69.7    341.8     69.7    341.8
 create_and_init_bs_env_for_gw        1  6.0      0.0      0.0    336.0    336.0
 dbt_remap                       467635 11.0     43.2     49.4    253.6    324.2
 fm_MWM_R_t_to_local_tensor_W_R      30  8.0      0.1      0.1    321.4    321.4
 dbt_tas_create_split           ******* 15.9      8.4      9.3    292.3    307.6
 dbt_tas_create_split_rows_or_c ******* 16.9     30.4     35.1    283.9    298.3
 dbt_tas_copy                   2692358 12.2     97.9    118.2    255.4    292.0
 mp_cart_sub                    1899115 10.2    291.6    292.0    291.6    292.0
 reshape_mm_compatible          4762992 14.9     39.2     41.9    265.9    280.6
 dbt_tas_merge                  1460814 15.0     23.1     28.1    151.5    266.2
 power                            81632  8.0     15.2     16.2    231.2    235.1
 dbt_tas_distribution_new       ******* 15.4    113.8    118.0    221.0    229.5
 diag_complex                     81632  9.0    216.0    219.0    216.0    219.0
 mp_cart_create                 ******* 16.2    192.4    199.2    207.8    215.6
 local_dbt_to_global_mat         361179  9.0      1.2      1.3    111.7    198.6
 dbt_tas_reshape_buffer_fill    5672088 16.5    172.5    195.7    172.5    195.7
 change_split                   6235392 15.4     13.0     13.8    175.2    185.9
 add_R                          ******* -7.3    101.0    120.7    142.5    171.7
 local_matrix_to_global_matrix   361179 10.0      0.7      0.8     74.1    161.2
 dbt_reserve_blocks_index       5352573 13.5      5.5      6.2    100.5    155.6
 compute_3c_integrals                 1  7.0      0.0      0.1    155.5    155.5
 build_3c_integrals                   1  8.0    140.9    150.3    145.9    155.2
 heuristic_RI_regularization          1  7.0      0.0      0.0    153.8    153.8
 dbt_reserve_blocks_index_array 4719639 12.8      4.3      5.1     93.5    148.4
 mp_sum_i                       4457190 15.4    140.9    143.6    140.9    143.6
 dos_pdos_ldos                        1  5.0      0.0      0.0    143.0    143.0
 send_sizes_1                    603288 11.0      0.3      0.4    140.1    142.7
 get_data                        603288 11.0     12.4    135.3     13.3    136.4
 cp_cfm_heevd                     17760  7.5      0.0      0.0    134.3    134.7
 cp_cfm_heevd_base                17760  8.5    134.3    134.6    134.3    134.6
 SOC_ev                            8488  6.0      0.1      0.1    130.6    130.7
 dbt_communicate_buffer         4418002 12.8     84.3    128.6     84.3    128.6
 dbt_copy_nocomm                 426045 11.0     71.6     93.8     88.3    117.1
 comm_data                       361179 11.0      0.5      1.6     39.9    107.9
 mp_comm_dup                    ******* 18.3     91.2     97.3     99.0    105.5
 mp_waitall_2                    722358 12.0     36.5    105.3     36.5    105.3
 is_cell_in_index_to_cell       *******  0.9     78.4     95.3     78.4     95.3
 kpoint_density_transform            49  7.0      0.3      0.3     90.0     90.0
 dbcsr_finalize                 7166509 11.2     14.2     16.8     64.9     79.3
 cp_fm_start_copy_general        602112  7.3      2.5      4.6     73.1     76.0
 rskp_transform                  226168  7.1      1.5     74.5      1.5     74.5
 mp_comm_free                   ******* 15.2     66.7     70.7     66.7     70.7
 bs_env_release                       1  2.0      0.1      0.2     57.9     68.8
 mp_comm_split_direct           ******* 17.9     61.2     64.0     64.9     67.9
 mp_isend_dv                    ******* 12.3      5.4     67.3      5.4     67.3
 dbt_distribution_new_expert    2141856 11.9     11.1     11.8     64.0     66.9
 dbt_create_matrix               603288 10.0      3.4      3.6     59.9     63.0
 dbt_permute_index              ******* 12.1     48.4     54.2     54.6     61.2
 mp_allgather_i                 1204224  8.3     55.2     60.9     55.2     60.9
 create_and_init_bs_env               1  5.0      0.0      0.0     59.6     59.6
 compute_cfm_mo_coeff_kp_and_ei       1  6.0      0.0      0.0     59.6     59.6
 dbt_tas_create_new             ******* 15.2     50.2     53.5     50.2     53.5
 reshape_mm_template             935270 15.5     30.0     33.7     45.1     49.4
 mp_alltoall_d11v               9466725 10.7     13.3     49.2     13.3     49.2
 dbcsr_filter_anytype           2678562 11.0      6.2      6.7     33.8     49.0
 dbt_align_index                7144488 11.4      7.5      8.0     44.9     47.7
 rsmat_to_kp                      25464  7.2      0.2      0.2     47.3     47.6
 dbt_tas_communicate_buffer     ******* 17.2     27.0     44.9     27.0     44.9
 cp_cfm_geeig_canon                4244  7.0      0.0      0.0     42.4     42.5
 dbt_tas_reshape_communicate_bu 5672088 16.5      3.4      3.8     25.4     41.8
 mp_alltoall_i                  ******* 15.1     38.2     39.3     38.2     39.3
 dbcsr_merge_all                2748082 11.9     24.4     28.2     31.3     38.1
 dbt_tas_mp_comm                2836044 13.0      4.5      5.0     35.0     37.4
 mp_max_i                       7720363 11.4     13.0     35.2     13.0     35.2
 dbt_create_new                 1070928 11.4      7.1      7.5     33.5     35.0
 transform_dmat                  100352  8.0      0.6     33.9      0.6     33.9
 mp_alltoall_i11v               6663017 10.6     13.8     30.0     13.8     30.0
 mp_comm_size                   ******* 16.2     24.7     27.5     24.7     27.5
 set_blocks                      361179 11.0      3.6      8.8     11.6     26.7
 dbt_reserve_blocks_template     426045 12.0      0.9      1.2     16.8     26.0
 mp_cart_get                    ******* 15.9     23.3     25.2     23.3     25.2
 dbt_pgrid_create_expert        2141859 12.9      2.6      2.9     22.3     23.9
 soc                                  1  5.0      0.0      0.0     23.5     23.5
 H_KS_spinor_kp                       1  6.0      0.0      0.0     23.5     23.5
 dbm_filter                     7021913 14.8     22.2     23.3     22.2     23.3
 dbt_copy_matrix_to_tensor       603288 10.0      4.0      4.3     15.6     21.6
 send_sizes_2                    603288 11.0      0.4      0.4     19.9     20.6
 dbt_nd_mp_comm                 1070923 11.4      1.6      1.8     17.9     19.5
 dbcsr_work_create              4149936 10.5     11.3     14.0     15.9     19.4
 dbcsr_iterator_start           ******* 11.1     13.9     14.6     16.4     17.3
 mp_comm_rank                   ******* 16.2     14.7     17.2     14.7     17.2
 -------------------------------------------------------------------------------

 The number of warnings for this run is : 1
 
 -------------------------------------------------------------------------------
  **** **** ******  **  PROGRAM ENDED AT                 2025-09-24 14:04:04.806
 ***** ** ***  *** **   PROGRAM RAN ON                                 n2lcn0113
 **    ****   ******    PROGRAM RAN BY                                  metdyn02
 ***** **    ** ** **   PROGRAM PROCESS ID                               3227822
  **** **  *******  **  PROGRAM STOPPED IN /scratch/hpc-prf-metdyn/metdyn02_Remi
                                           /05_TMD_new/paperbenchmarksMoS2/kpoin
                                           ts/64
