 DBCSR| CPU Multiplication driver                                           XSMM (U)
 DBCSR| Multrec recursion limit                                              512 (U)
 DBCSR| Multiplication stack size                                           1000 (D)
 DBCSR| Maximum elements for images                                    UNLIMITED (U)
 DBCSR| Multiplicative factor virtual images                                   1 (U)
 DBCSR| Use multiplication densification                                       T (D)
 DBCSR| Multiplication size stacks                                             3 (U)
 DBCSR| Use memory pool for CPU allocation                                     F (U)
 DBCSR| OMP: Current number of threads                                         8
 DBCSR| OMP: Max number of threads                                             8
 DBCSR| Split modifier for TAS multiplication algorithm                  1.0E+00 (U)


  **** **** ******  **  PROGRAM STARTED AT               2025-04-24 09:28:27.610
 ***** ** ***  *** **   PROGRAM STARTED ON         localadmin-ThinkPad-P16-Gen-2
 **    ****   ******    PROGRAM STARTED BY                            localadmin
 ***** **    ** ** **   PROGRAM PROCESS ID                                 49307
  **** **  *******  **  PROGRAM STARTED IN /home/localadmin/Documents/Benchmark_
                                           TMD/SNG/2_MoSe2

 CP2K| version string:                 CP2K version 2025.1 (Development Version)
 CP2K| source code revision number:                                  git:da03128
 CP2K| cp2kflags: omp libint fftw3 libxc libgrpp xsmm spglib libvori libbqb     
 CP2K| is freely available from                            https://www.cp2k.org/
 CP2K| Program compiled at                      Wed Apr 23 01:51:06 AM CEST 2025
 CP2K| Program compiled on                         localadmin-ThinkPad-P16-Gen-2
 CP2K| Program compiled for                                                local
 CP2K| Data directory path                            /home/localadmin/cp2k/data
 CP2K| Input file name                                                    GW.inp

 GLOBAL| Force Environment number                                              1
 GLOBAL| Basis set file name            /scratch/hpc-prf-metdyn/metdyn02_Remi/05
 GLOBAL| Potential file name            /pc2/groups/hpc-prf-metdyn/metdyn02_Remi
 GLOBAL| MM Potential file name                                     MM_POTENTIAL
 GLOBAL| Coordinate file name                                      __STD_INPUT__
 GLOBAL| Method name                                                        CP2K
 GLOBAL| Project name                                                      MoSe2
 GLOBAL| Run type                                                         ENERGY
 GLOBAL| FFT library                                                       FFTW3
 GLOBAL| Diagonalization library                                       ScaLAPACK
 GLOBAL| DGEMM library                                                      BLAS
 GLOBAL| Orthonormality check for eigenvectors                          DISABLED
 GLOBAL| Matrix multiplication library                                 ScaLAPACK
 GLOBAL| All-to-all communication in single precision                          F
 GLOBAL| FFTs using library dependent lengths                                  F
 GLOBAL| Grid backend                                                       AUTO
 GLOBAL| Global print level                                               MEDIUM
 GLOBAL| MPI I/O enabled                                                       T
 GLOBAL| Total number of message passing processes                             1
 GLOBAL| Number of threads for this process                                    8
 GLOBAL| This output is from process                                           0
 GLOBAL| OpenMP stack size per thread (OMP_STACKSIZE)                    default
 GLOBAL| CPU model name                    13th Gen Intel(R) Core(TM) i5-13600HX
 GLOBAL| CPUID                                                              1002

 MEMORY| system memory details [Kb]
 MEMORY|                        rank 0           min           max       average
 MEMORY| MemTotal            197503856     197503856     197503856     197503856
 MEMORY| MemFree             168559196     168559196     168559196     168559196
 MEMORY| Buffers                136336        136336        136336        136336
 MEMORY| Cached               26058192      26058192      26058192      26058192
 MEMORY| Slab                  1102608       1102608       1102608       1102608
 MEMORY| SReclaimable           760888        760888        760888        760888
 MEMORY| MemLikelyFree       195514612     195514612     195514612     195514612


 *** Fundamental physical constants (SI units) ***

 *** Literature: B. J. Mohr and B. N. Taylor,
 ***             CODATA recommended values of the fundamental physical
 ***             constants: 2006, Web Version 5.1
 ***             http://physics.nist.gov/constants

 Speed of light in vacuum [m/s]                             2.99792458000000E+08
 Magnetic constant or permeability of vacuum [N/A**2]       1.25663706143592E-06
 Electric constant or permittivity of vacuum [F/m]          8.85418781762039E-12
 Planck constant (h) [J*s]                                  6.62606896000000E-34
 Planck constant (h-bar) [J*s]                              1.05457162825177E-34
 Elementary charge [C]                                      1.60217648700000E-19
 Electron mass [kg]                                         9.10938215000000E-31
 Electron g factor [ ]                                     -2.00231930436220E+00
 Proton mass [kg]                                           1.67262163700000E-27
 Fine-structure constant                                    7.29735253760000E-03
 Rydberg constant [1/m]                                     1.09737315685270E+07
 Avogadro constant [1/mol]                                  6.02214179000000E+23
 Boltzmann constant [J/K]                                   1.38065040000000E-23
 Atomic mass unit [kg]                                      1.66053878200000E-27
 Bohr radius [m]                                            5.29177208590000E-11

 *** Conversion factors ***

 [u] -> [a.u.]                                              1.82288848426455E+03
 [Angstrom] -> [Bohr] = [a.u.]                              1.88972613288564E+00
 [a.u.] = [Bohr] -> [Angstrom]                              5.29177208590000E-01
 [a.u.] -> [s]                                              2.41888432650478E-17
 [a.u.] -> [fs]                                             2.41888432650478E-02
 [a.u.] -> [J]                                              4.35974393937059E-18
 [a.u.] -> [N]                                              8.23872205491840E-08
 [a.u.] -> [K]                                              3.15774647902944E+05
 [a.u.] -> [kJ/mol]                                         2.62549961709828E+03
 [a.u.] -> [kcal/mol]                                       6.27509468713739E+02
 [a.u.] -> [Pa]                                             2.94210107994716E+13
 [a.u.] -> [bar]                                            2.94210107994716E+08
 [a.u.] -> [atm]                                            2.90362800883016E+08
 [a.u.] -> [eV]                                             2.72113838565563E+01
 [a.u.] -> [Hz]                                             6.57968392072181E+15
 [a.u.] -> [1/cm] (wave numbers)                            2.19474631370540E+05
 [a.u./Bohr**2] -> [1/cm]                                   5.14048714338585E+03
 

 CELL_TOP| Volume [angstrom^3]:                                       143.175000
 CELL_TOP| Vector a [angstrom     3.320     0.000     0.000   |a| =     3.320000
 CELL_TOP| Vector b [angstrom    -1.660     2.875     0.000   |b| =     3.319823
 CELL_TOP| Vector c [angstrom     0.000     0.000    15.000   |c| =    15.000000
 CELL_TOP| Angle (b,c), alpha [degree]:                                90.000000
 CELL_TOP| Angle (a,c), beta  [degree]:                                90.000000
 CELL_TOP| Angle (a,b), gamma [degree]:                               120.001763
 CELL_TOP| Numerically orthorhombic:                                          NO
 CELL_TOP| Periodicity                                                        XY

 GENERATE|  Preliminary Number of Bonds generated:                             0
 GENERATE|  Achieved consistency in connectivity generation.

 CELL| Volume [angstrom^3]:                                           143.175000
 CELL| Vector a [angstrom]:       3.320     0.000     0.000   |a| =     3.320000
 CELL| Vector b [angstrom]:      -1.660     2.875     0.000   |b| =     3.319823
 CELL| Vector c [angstrom]:       0.000     0.000    15.000   |c| =    15.000000
 CELL| Angle (b,c), alpha [degree]:                                    90.000000
 CELL| Angle (a,c), beta  [degree]:                                    90.000000
 CELL| Angle (a,b), gamma [degree]:                                   120.001763
 CELL| Numerically orthorhombic:                                              NO
 CELL| Periodicity                                                            XY

 CELL_REF| Volume [angstrom^3]:                                       143.175000
 CELL_REF| Vector a [angstrom     3.320     0.000     0.000   |a| =     3.320000
 CELL_REF| Vector b [angstrom    -1.660     2.875     0.000   |b| =     3.319823
 CELL_REF| Vector c [angstrom     0.000     0.000    15.000   |c| =    15.000000
 CELL_REF| Angle (b,c), alpha [degree]:                                90.000000
 CELL_REF| Angle (a,c), beta  [degree]:                                90.000000
 CELL_REF| Angle (a,b), gamma [degree]:                               120.001763
 CELL_REF| Numerically orthorhombic:                                          NO
 CELL_REF| Periodicity                                                        XY

 *******************************************************************************
 *   ___                                                                       *
 *  /   \                                                                      *
 * [ABORT]                        The specified OLD file                       *
 *  \___/   </scratch/hpc-prf-metdyn/metdyn02_Remi/05_TMD_new/BASIS_AUG_MOLOPT *
 *    |    /BASIS_GTH_MOLOPT_AUG_for_excited_states> cannot be opened. It does *
 *  O/|         not exist. Data directory path: /home/localadmin/cp2k/data     *
 * /| |                                                                        *
 * / \                                                   common/cp_files.F:403 *
 *******************************************************************************


 ===== Routine Calling Stack ===== 

            3 read_qs_kind
            2 create_qs_kind_set
            1 CP2K
 DBCSR| CPU Multiplication driver                                           XSMM (U)
 DBCSR| Multrec recursion limit                                              512 (U)
 DBCSR| Multiplication stack size                                           1000 (D)
 DBCSR| Maximum elements for images                                    UNLIMITED (U)
 DBCSR| Multiplicative factor virtual images                                   1 (U)
 DBCSR| Use multiplication densification                                       T (D)
 DBCSR| Multiplication size stacks                                             3 (U)
 DBCSR| Use memory pool for CPU allocation                                     F (U)
 DBCSR| OMP: Current number of threads                                         8
 DBCSR| OMP: Max number of threads                                             8
 DBCSR| Split modifier for TAS multiplication algorithm                  1.0E+00 (U)


  **** **** ******  **  PROGRAM STARTED AT               2025-04-24 09:30:28.829
 ***** ** ***  *** **   PROGRAM STARTED ON         localadmin-ThinkPad-P16-Gen-2
 **    ****   ******    PROGRAM STARTED BY                            localadmin
 ***** **    ** ** **   PROGRAM PROCESS ID                                 49381
  **** **  *******  **  PROGRAM STARTED IN /home/localadmin/Documents/Benchmark_
                                           TMD/SNG/2_MoSe2

 CP2K| version string:                 CP2K version 2025.1 (Development Version)
 CP2K| source code revision number:                                  git:da03128
 CP2K| cp2kflags: omp libint fftw3 libxc libgrpp xsmm spglib libvori libbqb     
 CP2K| is freely available from                            https://www.cp2k.org/
 CP2K| Program compiled at                      Wed Apr 23 01:51:06 AM CEST 2025
 CP2K| Program compiled on                         localadmin-ThinkPad-P16-Gen-2
 CP2K| Program compiled for                                                local
 CP2K| Data directory path                            /home/localadmin/cp2k/data
 CP2K| Input file name                                                    GW.inp

 GLOBAL| Force Environment number                                              1
 GLOBAL| Basis set file name            /home/localadmin/Documents/Benchmark_TMD
 GLOBAL| Potential file name            /home/localadmin/cp2k/data/GTH_SOC_POTEN
 GLOBAL| MM Potential file name                                     MM_POTENTIAL
 GLOBAL| Coordinate file name                                      __STD_INPUT__
 GLOBAL| Method name                                                        CP2K
 GLOBAL| Project name                                                      MoSe2
 GLOBAL| Run type                                                         ENERGY
 GLOBAL| FFT library                                                       FFTW3
 GLOBAL| Diagonalization library                                       ScaLAPACK
 GLOBAL| DGEMM library                                                      BLAS
 GLOBAL| Orthonormality check for eigenvectors                          DISABLED
 GLOBAL| Matrix multiplication library                                 ScaLAPACK
 GLOBAL| All-to-all communication in single precision                          F
 GLOBAL| FFTs using library dependent lengths                                  F
 GLOBAL| Grid backend                                                       AUTO
 GLOBAL| Global print level                                               MEDIUM
 GLOBAL| MPI I/O enabled                                                       T
 GLOBAL| Total number of message passing processes                             1
 GLOBAL| Number of threads for this process                                    8
 GLOBAL| This output is from process                                           0
 GLOBAL| OpenMP stack size per thread (OMP_STACKSIZE)                    default
 GLOBAL| CPU model name                    13th Gen Intel(R) Core(TM) i5-13600HX
 GLOBAL| CPUID                                                              1002

 MEMORY| system memory details [Kb]
 MEMORY|                        rank 0           min           max       average
 MEMORY| MemTotal            197503856     197503856     197503856     197503856
 MEMORY| MemFree             168543908     168543908     168543908     168543908
 MEMORY| Buffers                136616        136616        136616        136616
 MEMORY| Cached               26060408      26060408      26060408      26060408
 MEMORY| Slab                  1102668       1102668       1102668       1102668
 MEMORY| SReclaimable           760924        760924        760924        760924
 MEMORY| MemLikelyFree       195501856     195501856     195501856     195501856


 *** Fundamental physical constants (SI units) ***

 *** Literature: B. J. Mohr and B. N. Taylor,
 ***             CODATA recommended values of the fundamental physical
 ***             constants: 2006, Web Version 5.1
 ***             http://physics.nist.gov/constants

 Speed of light in vacuum [m/s]                             2.99792458000000E+08
 Magnetic constant or permeability of vacuum [N/A**2]       1.25663706143592E-06
 Electric constant or permittivity of vacuum [F/m]          8.85418781762039E-12
 Planck constant (h) [J*s]                                  6.62606896000000E-34
 Planck constant (h-bar) [J*s]                              1.05457162825177E-34
 Elementary charge [C]                                      1.60217648700000E-19
 Electron mass [kg]                                         9.10938215000000E-31
 Electron g factor [ ]                                     -2.00231930436220E+00
 Proton mass [kg]                                           1.67262163700000E-27
 Fine-structure constant                                    7.29735253760000E-03
 Rydberg constant [1/m]                                     1.09737315685270E+07
 Avogadro constant [1/mol]                                  6.02214179000000E+23
 Boltzmann constant [J/K]                                   1.38065040000000E-23
 Atomic mass unit [kg]                                      1.66053878200000E-27
 Bohr radius [m]                                            5.29177208590000E-11

 *** Conversion factors ***

 [u] -> [a.u.]                                              1.82288848426455E+03
 [Angstrom] -> [Bohr] = [a.u.]                              1.88972613288564E+00
 [a.u.] = [Bohr] -> [Angstrom]                              5.29177208590000E-01
 [a.u.] -> [s]                                              2.41888432650478E-17
 [a.u.] -> [fs]                                             2.41888432650478E-02
 [a.u.] -> [J]                                              4.35974393937059E-18
 [a.u.] -> [N]                                              8.23872205491840E-08
 [a.u.] -> [K]                                              3.15774647902944E+05
 [a.u.] -> [kJ/mol]                                         2.62549961709828E+03
 [a.u.] -> [kcal/mol]                                       6.27509468713739E+02
 [a.u.] -> [Pa]                                             2.94210107994716E+13
 [a.u.] -> [bar]                                            2.94210107994716E+08
 [a.u.] -> [atm]                                            2.90362800883016E+08
 [a.u.] -> [eV]                                             2.72113838565563E+01
 [a.u.] -> [Hz]                                             6.57968392072181E+15
 [a.u.] -> [1/cm] (wave numbers)                            2.19474631370540E+05
 [a.u./Bohr**2] -> [1/cm]                                   5.14048714338585E+03
 

 CELL_TOP| Volume [angstrom^3]:                                       143.175000
 CELL_TOP| Vector a [angstrom     3.320     0.000     0.000   |a| =     3.320000
 CELL_TOP| Vector b [angstrom    -1.660     2.875     0.000   |b| =     3.319823
 CELL_TOP| Vector c [angstrom     0.000     0.000    15.000   |c| =    15.000000
 CELL_TOP| Angle (b,c), alpha [degree]:                                90.000000
 CELL_TOP| Angle (a,c), beta  [degree]:                                90.000000
 CELL_TOP| Angle (a,b), gamma [degree]:                               120.001763
 CELL_TOP| Numerically orthorhombic:                                          NO
 CELL_TOP| Periodicity                                                        XY

 GENERATE|  Preliminary Number of Bonds generated:                             0
 GENERATE|  Achieved consistency in connectivity generation.

 CELL| Volume [angstrom^3]:                                           143.175000
 CELL| Vector a [angstrom]:       3.320     0.000     0.000   |a| =     3.320000
 CELL| Vector b [angstrom]:      -1.660     2.875     0.000   |b| =     3.319823
 CELL| Vector c [angstrom]:       0.000     0.000    15.000   |c| =    15.000000
 CELL| Angle (b,c), alpha [degree]:                                    90.000000
 CELL| Angle (a,c), beta  [degree]:                                    90.000000
 CELL| Angle (a,b), gamma [degree]:                                   120.001763
 CELL| Numerically orthorhombic:                                              NO
 CELL| Periodicity                                                            XY

 CELL_REF| Volume [angstrom^3]:                                       143.175000
 CELL_REF| Vector a [angstrom     3.320     0.000     0.000   |a| =     3.320000
 CELL_REF| Vector b [angstrom    -1.660     2.875     0.000   |b| =     3.319823
 CELL_REF| Vector c [angstrom     0.000     0.000    15.000   |c| =    15.000000
 CELL_REF| Angle (b,c), alpha [degree]:                                90.000000
 CELL_REF| Angle (a,c), beta  [degree]:                                90.000000
 CELL_REF| Angle (a,b), gamma [degree]:                               120.001763
 CELL_REF| Numerically orthorhombic:                                          NO
 CELL_REF| Periodicity                                                        XY

 *******************************************************************************
                                    Kpoints
 *******************************************************************************
 BRILLOUIN| K-point scheme                                        Monkhorst-Pack
 BRILLOUIN| K-Point grid                                            24   24    1
 BRILLOUIN| Accuracy in Symmetry determination                      0.100000E-05
 BRILLOUIN| K-Point point group symmetrization                               OFF
 BRILLOUIN| Wavefunction type                                            COMPLEX
 BRILLOUIN| List of Kpoints [2 Pi/Bohr]                                      288
 BRILLOUIN| Number           Weight            X              Y              Z
 BRILLOUIN|     1           0.00347       -0.47917       -0.47917        0.00000
 BRILLOUIN|     2           0.00347       -0.47917       -0.43750        0.00000
 BRILLOUIN|     3           0.00347       -0.47917       -0.39583        0.00000
 BRILLOUIN|     4           0.00347       -0.47917       -0.35417        0.00000
 BRILLOUIN|     5           0.00347       -0.47917       -0.31250        0.00000
 BRILLOUIN|     6           0.00347       -0.47917       -0.27083        0.00000
 BRILLOUIN|     7           0.00347       -0.47917       -0.22917        0.00000
 BRILLOUIN|     8           0.00347       -0.47917       -0.18750        0.00000
 BRILLOUIN|     9           0.00347       -0.47917       -0.14583        0.00000
 BRILLOUIN|    10           0.00347       -0.47917       -0.10417        0.00000
 BRILLOUIN|    11           0.00347       -0.47917       -0.06250        0.00000
 BRILLOUIN|    12           0.00347       -0.47917       -0.02083        0.00000
 BRILLOUIN|    13           0.00347       -0.47917        0.02083        0.00000
 BRILLOUIN|    14           0.00347       -0.47917        0.06250        0.00000
 BRILLOUIN|    15           0.00347       -0.47917        0.10417        0.00000
 BRILLOUIN|    16           0.00347       -0.47917        0.14583        0.00000
 BRILLOUIN|    17           0.00347       -0.47917        0.18750        0.00000
 BRILLOUIN|    18           0.00347       -0.47917        0.22917        0.00000
 BRILLOUIN|    19           0.00347       -0.47917        0.27083        0.00000
 BRILLOUIN|    20           0.00347       -0.47917        0.31250        0.00000
 BRILLOUIN|    21           0.00347       -0.47917        0.35417        0.00000
 BRILLOUIN|    22           0.00347       -0.47917        0.39583        0.00000
 BRILLOUIN|    23           0.00347       -0.47917        0.43750        0.00000
 BRILLOUIN|    24           0.00347       -0.47917        0.47917        0.00000
 BRILLOUIN|    25           0.00347       -0.43750       -0.47917        0.00000
 BRILLOUIN|    26           0.00347       -0.43750       -0.43750        0.00000
 BRILLOUIN|    27           0.00347       -0.43750       -0.39583        0.00000
 BRILLOUIN|    28           0.00347       -0.43750       -0.35417        0.00000
 BRILLOUIN|    29           0.00347       -0.43750       -0.31250        0.00000
 BRILLOUIN|    30           0.00347       -0.43750       -0.27083        0.00000
 BRILLOUIN|    31           0.00347       -0.43750       -0.22917        0.00000
 BRILLOUIN|    32           0.00347       -0.43750       -0.18750        0.00000
 BRILLOUIN|    33           0.00347       -0.43750       -0.14583        0.00000
 BRILLOUIN|    34           0.00347       -0.43750       -0.10417        0.00000
 BRILLOUIN|    35           0.00347       -0.43750       -0.06250        0.00000
 BRILLOUIN|    36           0.00347       -0.43750       -0.02083        0.00000
 BRILLOUIN|    37           0.00347       -0.43750        0.02083        0.00000
 BRILLOUIN|    38           0.00347       -0.43750        0.06250        0.00000
 BRILLOUIN|    39           0.00347       -0.43750        0.10417        0.00000
 BRILLOUIN|    40           0.00347       -0.43750        0.14583        0.00000
 BRILLOUIN|    41           0.00347       -0.43750        0.18750        0.00000
 BRILLOUIN|    42           0.00347       -0.43750        0.22917        0.00000
 BRILLOUIN|    43           0.00347       -0.43750        0.27083        0.00000
 BRILLOUIN|    44           0.00347       -0.43750        0.31250        0.00000
 BRILLOUIN|    45           0.00347       -0.43750        0.35417        0.00000
 BRILLOUIN|    46           0.00347       -0.43750        0.39583        0.00000
 BRILLOUIN|    47           0.00347       -0.43750        0.43750        0.00000
 BRILLOUIN|    48           0.00347       -0.43750        0.47917        0.00000
 BRILLOUIN|    49           0.00347       -0.39583       -0.47917        0.00000
 BRILLOUIN|    50           0.00347       -0.39583       -0.43750        0.00000
 BRILLOUIN|    51           0.00347       -0.39583       -0.39583        0.00000
 BRILLOUIN|    52           0.00347       -0.39583       -0.35417        0.00000
 BRILLOUIN|    53           0.00347       -0.39583       -0.31250        0.00000
 BRILLOUIN|    54           0.00347       -0.39583       -0.27083        0.00000
 BRILLOUIN|    55           0.00347       -0.39583       -0.22917        0.00000
 BRILLOUIN|    56           0.00347       -0.39583       -0.18750        0.00000
 BRILLOUIN|    57           0.00347       -0.39583       -0.14583        0.00000
 BRILLOUIN|    58           0.00347       -0.39583       -0.10417        0.00000
 BRILLOUIN|    59           0.00347       -0.39583       -0.06250        0.00000
 BRILLOUIN|    60           0.00347       -0.39583       -0.02083        0.00000
 BRILLOUIN|    61           0.00347       -0.39583        0.02083        0.00000
 BRILLOUIN|    62           0.00347       -0.39583        0.06250        0.00000
 BRILLOUIN|    63           0.00347       -0.39583        0.10417        0.00000
 BRILLOUIN|    64           0.00347       -0.39583        0.14583        0.00000
 BRILLOUIN|    65           0.00347       -0.39583        0.18750        0.00000
 BRILLOUIN|    66           0.00347       -0.39583        0.22917        0.00000
 BRILLOUIN|    67           0.00347       -0.39583        0.27083        0.00000
 BRILLOUIN|    68           0.00347       -0.39583        0.31250        0.00000
 BRILLOUIN|    69           0.00347       -0.39583        0.35417        0.00000
 BRILLOUIN|    70           0.00347       -0.39583        0.39583        0.00000
 BRILLOUIN|    71           0.00347       -0.39583        0.43750        0.00000
 BRILLOUIN|    72           0.00347       -0.39583        0.47917        0.00000
 BRILLOUIN|    73           0.00347       -0.35417       -0.47917        0.00000
 BRILLOUIN|    74           0.00347       -0.35417       -0.43750        0.00000
 BRILLOUIN|    75           0.00347       -0.35417       -0.39583        0.00000
 BRILLOUIN|    76           0.00347       -0.35417       -0.35417        0.00000
 BRILLOUIN|    77           0.00347       -0.35417       -0.31250        0.00000
 BRILLOUIN|    78           0.00347       -0.35417       -0.27083        0.00000
 BRILLOUIN|    79           0.00347       -0.35417       -0.22917        0.00000
 BRILLOUIN|    80           0.00347       -0.35417       -0.18750        0.00000
 BRILLOUIN|    81           0.00347       -0.35417       -0.14583        0.00000
 BRILLOUIN|    82           0.00347       -0.35417       -0.10417        0.00000
 BRILLOUIN|    83           0.00347       -0.35417       -0.06250        0.00000
 BRILLOUIN|    84           0.00347       -0.35417       -0.02083        0.00000
 BRILLOUIN|    85           0.00347       -0.35417        0.02083        0.00000
 BRILLOUIN|    86           0.00347       -0.35417        0.06250        0.00000
 BRILLOUIN|    87           0.00347       -0.35417        0.10417        0.00000
 BRILLOUIN|    88           0.00347       -0.35417        0.14583        0.00000
 BRILLOUIN|    89           0.00347       -0.35417        0.18750        0.00000
 BRILLOUIN|    90           0.00347       -0.35417        0.22917        0.00000
 BRILLOUIN|    91           0.00347       -0.35417        0.27083        0.00000
 BRILLOUIN|    92           0.00347       -0.35417        0.31250        0.00000
 BRILLOUIN|    93           0.00347       -0.35417        0.35417        0.00000
 BRILLOUIN|    94           0.00347       -0.35417        0.39583        0.00000
 BRILLOUIN|    95           0.00347       -0.35417        0.43750        0.00000
 BRILLOUIN|    96           0.00347       -0.35417        0.47917        0.00000
 BRILLOUIN|    97           0.00347       -0.31250       -0.47917        0.00000
 BRILLOUIN|    98           0.00347       -0.31250       -0.43750        0.00000
 BRILLOUIN|    99           0.00347       -0.31250       -0.39583        0.00000
 BRILLOUIN|   100           0.00347       -0.31250       -0.35417        0.00000
 BRILLOUIN|   101           0.00347       -0.31250       -0.31250        0.00000
 BRILLOUIN|   102           0.00347       -0.31250       -0.27083        0.00000
 BRILLOUIN|   103           0.00347       -0.31250       -0.22917        0.00000
 BRILLOUIN|   104           0.00347       -0.31250       -0.18750        0.00000
 BRILLOUIN|   105           0.00347       -0.31250       -0.14583        0.00000
 BRILLOUIN|   106           0.00347       -0.31250       -0.10417        0.00000
 BRILLOUIN|   107           0.00347       -0.31250       -0.06250        0.00000
 BRILLOUIN|   108           0.00347       -0.31250       -0.02083        0.00000
 BRILLOUIN|   109           0.00347       -0.31250        0.02083        0.00000
 BRILLOUIN|   110           0.00347       -0.31250        0.06250        0.00000
 BRILLOUIN|   111           0.00347       -0.31250        0.10417        0.00000
 BRILLOUIN|   112           0.00347       -0.31250        0.14583        0.00000
 BRILLOUIN|   113           0.00347       -0.31250        0.18750        0.00000
 BRILLOUIN|   114           0.00347       -0.31250        0.22917        0.00000
 BRILLOUIN|   115           0.00347       -0.31250        0.27083        0.00000
 BRILLOUIN|   116           0.00347       -0.31250        0.31250        0.00000
 BRILLOUIN|   117           0.00347       -0.31250        0.35417        0.00000
 BRILLOUIN|   118           0.00347       -0.31250        0.39583        0.00000
 BRILLOUIN|   119           0.00347       -0.31250        0.43750        0.00000
 BRILLOUIN|   120           0.00347       -0.31250        0.47917        0.00000
 BRILLOUIN|   121           0.00347       -0.27083       -0.47917        0.00000
 BRILLOUIN|   122           0.00347       -0.27083       -0.43750        0.00000
 BRILLOUIN|   123           0.00347       -0.27083       -0.39583        0.00000
 BRILLOUIN|   124           0.00347       -0.27083       -0.35417        0.00000
 BRILLOUIN|   125           0.00347       -0.27083       -0.31250        0.00000
 BRILLOUIN|   126           0.00347       -0.27083       -0.27083        0.00000
 BRILLOUIN|   127           0.00347       -0.27083       -0.22917        0.00000
 BRILLOUIN|   128           0.00347       -0.27083       -0.18750        0.00000
 BRILLOUIN|   129           0.00347       -0.27083       -0.14583        0.00000
 BRILLOUIN|   130           0.00347       -0.27083       -0.10417        0.00000
 BRILLOUIN|   131           0.00347       -0.27083       -0.06250        0.00000
 BRILLOUIN|   132           0.00347       -0.27083       -0.02083        0.00000
 BRILLOUIN|   133           0.00347       -0.27083        0.02083        0.00000
 BRILLOUIN|   134           0.00347       -0.27083        0.06250        0.00000
 BRILLOUIN|   135           0.00347       -0.27083        0.10417        0.00000
 BRILLOUIN|   136           0.00347       -0.27083        0.14583        0.00000
 BRILLOUIN|   137           0.00347       -0.27083        0.18750        0.00000
 BRILLOUIN|   138           0.00347       -0.27083        0.22917        0.00000
 BRILLOUIN|   139           0.00347       -0.27083        0.27083        0.00000
 BRILLOUIN|   140           0.00347       -0.27083        0.31250        0.00000
 BRILLOUIN|   141           0.00347       -0.27083        0.35417        0.00000
 BRILLOUIN|   142           0.00347       -0.27083        0.39583        0.00000
 BRILLOUIN|   143           0.00347       -0.27083        0.43750        0.00000
 BRILLOUIN|   144           0.00347       -0.27083        0.47917        0.00000
 BRILLOUIN|   145           0.00347       -0.22917       -0.47917        0.00000
 BRILLOUIN|   146           0.00347       -0.22917       -0.43750        0.00000
 BRILLOUIN|   147           0.00347       -0.22917       -0.39583        0.00000
 BRILLOUIN|   148           0.00347       -0.22917       -0.35417        0.00000
 BRILLOUIN|   149           0.00347       -0.22917       -0.31250        0.00000
 BRILLOUIN|   150           0.00347       -0.22917       -0.27083        0.00000
 BRILLOUIN|   151           0.00347       -0.22917       -0.22917        0.00000
 BRILLOUIN|   152           0.00347       -0.22917       -0.18750        0.00000
 BRILLOUIN|   153           0.00347       -0.22917       -0.14583        0.00000
 BRILLOUIN|   154           0.00347       -0.22917       -0.10417        0.00000
 BRILLOUIN|   155           0.00347       -0.22917       -0.06250        0.00000
 BRILLOUIN|   156           0.00347       -0.22917       -0.02083        0.00000
 BRILLOUIN|   157           0.00347       -0.22917        0.02083        0.00000
 BRILLOUIN|   158           0.00347       -0.22917        0.06250        0.00000
 BRILLOUIN|   159           0.00347       -0.22917        0.10417        0.00000
 BRILLOUIN|   160           0.00347       -0.22917        0.14583        0.00000
 BRILLOUIN|   161           0.00347       -0.22917        0.18750        0.00000
 BRILLOUIN|   162           0.00347       -0.22917        0.22917        0.00000
 BRILLOUIN|   163           0.00347       -0.22917        0.27083        0.00000
 BRILLOUIN|   164           0.00347       -0.22917        0.31250        0.00000
 BRILLOUIN|   165           0.00347       -0.22917        0.35417        0.00000
 BRILLOUIN|   166           0.00347       -0.22917        0.39583        0.00000
 BRILLOUIN|   167           0.00347       -0.22917        0.43750        0.00000
 BRILLOUIN|   168           0.00347       -0.22917        0.47917        0.00000
 BRILLOUIN|   169           0.00347       -0.18750       -0.47917        0.00000
 BRILLOUIN|   170           0.00347       -0.18750       -0.43750        0.00000
 BRILLOUIN|   171           0.00347       -0.18750       -0.39583        0.00000
 BRILLOUIN|   172           0.00347       -0.18750       -0.35417        0.00000
 BRILLOUIN|   173           0.00347       -0.18750       -0.31250        0.00000
 BRILLOUIN|   174           0.00347       -0.18750       -0.27083        0.00000
 BRILLOUIN|   175           0.00347       -0.18750       -0.22917        0.00000
 BRILLOUIN|   176           0.00347       -0.18750       -0.18750        0.00000
 BRILLOUIN|   177           0.00347       -0.18750       -0.14583        0.00000
 BRILLOUIN|   178           0.00347       -0.18750       -0.10417        0.00000
 BRILLOUIN|   179           0.00347       -0.18750       -0.06250        0.00000
 BRILLOUIN|   180           0.00347       -0.18750       -0.02083        0.00000
 BRILLOUIN|   181           0.00347       -0.18750        0.02083        0.00000
 BRILLOUIN|   182           0.00347       -0.18750        0.06250        0.00000
 BRILLOUIN|   183           0.00347       -0.18750        0.10417        0.00000
 BRILLOUIN|   184           0.00347       -0.18750        0.14583        0.00000
 BRILLOUIN|   185           0.00347       -0.18750        0.18750        0.00000
 BRILLOUIN|   186           0.00347       -0.18750        0.22917        0.00000
 BRILLOUIN|   187           0.00347       -0.18750        0.27083        0.00000
 BRILLOUIN|   188           0.00347       -0.18750        0.31250        0.00000
 BRILLOUIN|   189           0.00347       -0.18750        0.35417        0.00000
 BRILLOUIN|   190           0.00347       -0.18750        0.39583        0.00000
 BRILLOUIN|   191           0.00347       -0.18750        0.43750        0.00000
 BRILLOUIN|   192           0.00347       -0.18750        0.47917        0.00000
 BRILLOUIN|   193           0.00347       -0.14583       -0.47917        0.00000
 BRILLOUIN|   194           0.00347       -0.14583       -0.43750        0.00000
 BRILLOUIN|   195           0.00347       -0.14583       -0.39583        0.00000
 BRILLOUIN|   196           0.00347       -0.14583       -0.35417        0.00000
 BRILLOUIN|   197           0.00347       -0.14583       -0.31250        0.00000
 BRILLOUIN|   198           0.00347       -0.14583       -0.27083        0.00000
 BRILLOUIN|   199           0.00347       -0.14583       -0.22917        0.00000
 BRILLOUIN|   200           0.00347       -0.14583       -0.18750        0.00000
 BRILLOUIN|   201           0.00347       -0.14583       -0.14583        0.00000
 BRILLOUIN|   202           0.00347       -0.14583       -0.10417        0.00000
 BRILLOUIN|   203           0.00347       -0.14583       -0.06250        0.00000
 BRILLOUIN|   204           0.00347       -0.14583       -0.02083        0.00000
 BRILLOUIN|   205           0.00347       -0.14583        0.02083        0.00000
 BRILLOUIN|   206           0.00347       -0.14583        0.06250        0.00000
 BRILLOUIN|   207           0.00347       -0.14583        0.10417        0.00000
 BRILLOUIN|   208           0.00347       -0.14583        0.14583        0.00000
 BRILLOUIN|   209           0.00347       -0.14583        0.18750        0.00000
 BRILLOUIN|   210           0.00347       -0.14583        0.22917        0.00000
 BRILLOUIN|   211           0.00347       -0.14583        0.27083        0.00000
 BRILLOUIN|   212           0.00347       -0.14583        0.31250        0.00000
 BRILLOUIN|   213           0.00347       -0.14583        0.35417        0.00000
 BRILLOUIN|   214           0.00347       -0.14583        0.39583        0.00000
 BRILLOUIN|   215           0.00347       -0.14583        0.43750        0.00000
 BRILLOUIN|   216           0.00347       -0.14583        0.47917        0.00000
 BRILLOUIN|   217           0.00347       -0.10417       -0.47917        0.00000
 BRILLOUIN|   218           0.00347       -0.10417       -0.43750        0.00000
 BRILLOUIN|   219           0.00347       -0.10417       -0.39583        0.00000
 BRILLOUIN|   220           0.00347       -0.10417       -0.35417        0.00000
 BRILLOUIN|   221           0.00347       -0.10417       -0.31250        0.00000
 BRILLOUIN|   222           0.00347       -0.10417       -0.27083        0.00000
 BRILLOUIN|   223           0.00347       -0.10417       -0.22917        0.00000
 BRILLOUIN|   224           0.00347       -0.10417       -0.18750        0.00000
 BRILLOUIN|   225           0.00347       -0.10417       -0.14583        0.00000
 BRILLOUIN|   226           0.00347       -0.10417       -0.10417        0.00000
 BRILLOUIN|   227           0.00347       -0.10417       -0.06250        0.00000
 BRILLOUIN|   228           0.00347       -0.10417       -0.02083        0.00000
 BRILLOUIN|   229           0.00347       -0.10417        0.02083        0.00000
 BRILLOUIN|   230           0.00347       -0.10417        0.06250        0.00000
 BRILLOUIN|   231           0.00347       -0.10417        0.10417        0.00000
 BRILLOUIN|   232           0.00347       -0.10417        0.14583        0.00000
 BRILLOUIN|   233           0.00347       -0.10417        0.18750        0.00000
 BRILLOUIN|   234           0.00347       -0.10417        0.22917        0.00000
 BRILLOUIN|   235           0.00347       -0.10417        0.27083        0.00000
 BRILLOUIN|   236           0.00347       -0.10417        0.31250        0.00000
 BRILLOUIN|   237           0.00347       -0.10417        0.35417        0.00000
 BRILLOUIN|   238           0.00347       -0.10417        0.39583        0.00000
 BRILLOUIN|   239           0.00347       -0.10417        0.43750        0.00000
 BRILLOUIN|   240           0.00347       -0.10417        0.47917        0.00000
 BRILLOUIN|   241           0.00347       -0.06250       -0.47917        0.00000
 BRILLOUIN|   242           0.00347       -0.06250       -0.43750        0.00000
 BRILLOUIN|   243           0.00347       -0.06250       -0.39583        0.00000
 BRILLOUIN|   244           0.00347       -0.06250       -0.35417        0.00000
 BRILLOUIN|   245           0.00347       -0.06250       -0.31250        0.00000
 BRILLOUIN|   246           0.00347       -0.06250       -0.27083        0.00000
 BRILLOUIN|   247           0.00347       -0.06250       -0.22917        0.00000
 BRILLOUIN|   248           0.00347       -0.06250       -0.18750        0.00000
 BRILLOUIN|   249           0.00347       -0.06250       -0.14583        0.00000
 BRILLOUIN|   250           0.00347       -0.06250       -0.10417        0.00000
 BRILLOUIN|   251           0.00347       -0.06250       -0.06250        0.00000
 BRILLOUIN|   252           0.00347       -0.06250       -0.02083        0.00000
 BRILLOUIN|   253           0.00347       -0.06250        0.02083        0.00000
 BRILLOUIN|   254           0.00347       -0.06250        0.06250        0.00000
 BRILLOUIN|   255           0.00347       -0.06250        0.10417        0.00000
 BRILLOUIN|   256           0.00347       -0.06250        0.14583        0.00000
 BRILLOUIN|   257           0.00347       -0.06250        0.18750        0.00000
 BRILLOUIN|   258           0.00347       -0.06250        0.22917        0.00000
 BRILLOUIN|   259           0.00347       -0.06250        0.27083        0.00000
 BRILLOUIN|   260           0.00347       -0.06250        0.31250        0.00000
 BRILLOUIN|   261           0.00347       -0.06250        0.35417        0.00000
 BRILLOUIN|   262           0.00347       -0.06250        0.39583        0.00000
 BRILLOUIN|   263           0.00347       -0.06250        0.43750        0.00000
 BRILLOUIN|   264           0.00347       -0.06250        0.47917        0.00000
 BRILLOUIN|   265           0.00347       -0.02083       -0.47917        0.00000
 BRILLOUIN|   266           0.00347       -0.02083       -0.43750        0.00000
 BRILLOUIN|   267           0.00347       -0.02083       -0.39583        0.00000
 BRILLOUIN|   268           0.00347       -0.02083       -0.35417        0.00000
 BRILLOUIN|   269           0.00347       -0.02083       -0.31250        0.00000
 BRILLOUIN|   270           0.00347       -0.02083       -0.27083        0.00000
 BRILLOUIN|   271           0.00347       -0.02083       -0.22917        0.00000
 BRILLOUIN|   272           0.00347       -0.02083       -0.18750        0.00000
 BRILLOUIN|   273           0.00347       -0.02083       -0.14583        0.00000
 BRILLOUIN|   274           0.00347       -0.02083       -0.10417        0.00000
 BRILLOUIN|   275           0.00347       -0.02083       -0.06250        0.00000
 BRILLOUIN|   276           0.00347       -0.02083       -0.02083        0.00000
 BRILLOUIN|   277           0.00347       -0.02083        0.02083        0.00000
 BRILLOUIN|   278           0.00347       -0.02083        0.06250        0.00000
 BRILLOUIN|   279           0.00347       -0.02083        0.10417        0.00000
 BRILLOUIN|   280           0.00347       -0.02083        0.14583        0.00000
 BRILLOUIN|   281           0.00347       -0.02083        0.18750        0.00000
 BRILLOUIN|   282           0.00347       -0.02083        0.22917        0.00000
 BRILLOUIN|   283           0.00347       -0.02083        0.27083        0.00000
 BRILLOUIN|   284           0.00347       -0.02083        0.31250        0.00000
 BRILLOUIN|   285           0.00347       -0.02083        0.35417        0.00000
 BRILLOUIN|   286           0.00347       -0.02083        0.39583        0.00000
 BRILLOUIN|   287           0.00347       -0.02083        0.43750        0.00000
 BRILLOUIN|   288           0.00347       -0.02083        0.47917        0.00000
 *******************************************************************************

 *******************************************************************************
 *******************************************************************************
 **                                                                           **
 **     #####                         ##              ##                      **
 **    ##   ##            ##          ##              ##                      **
 **   ##     ##                       ##            ######                    **
 **   ##     ##  ##   ##  ##   #####  ##  ##   ####   ##    #####    #####    **
 **   ##     ##  ##   ##  ##  ##      ## ##   ##      ##   ##   ##  ##   ##   **
 **   ##  ## ##  ##   ##  ##  ##      ####     ###    ##   ######   ######    **
 **    ##  ###   ##   ##  ##  ##      ## ##      ##   ##   ##       ##        **
 **     #######   #####   ##   #####  ##  ##  ####    ##    #####   ##        **
 **           ##                                                    ##        **
 **                                                                           **
 **                                                ... make the atoms dance   **
 **                                                                           **
 **            Copyright (C) by CP2K developers group (2000-2025)             **
 **                      J. Chem. Phys. 152, 194103 (2020)                    **
 **                                                                           **
 *******************************************************************************

 DFT| Spin restricted Kohn-Sham (RKS) calculation                            RKS
 DFT| Multiplicity                                                             1
 DFT| Number of spin states                                                    1
 DFT| Charge                                                                   0
 DFT| Self-interaction correction (SIC)                                       NO
 DFT| Cutoffs: density                                              1.000000E-10
 DFT|          gradient                                             1.000000E-10
 DFT|          tau                                                  1.000000E-10
 DFT|          cutoff_smoothing_range                               0.000000E+00
 DFT| XC density smoothing                                                  NONE
 DFT| XC derivatives                                                          PW

 FUNCTIONAL| PBE:
 FUNCTIONAL| J.P.Perdew, K.Burke, M.Ernzerhof, Phys. Rev. Letter, vol. 77, n 18,
 FUNCTIONAL|  pp. 3865-3868, (1996) {spin unpolarized}                          


 QS| Method:                                                                GAPW
 QS| Density plane wave grid type                        NON-SPHERICAL FULLSPACE
 QS| Number of grid levels:                                                    4
 QS| Density cutoff [a.u.]:                                                250.0
 QS| Multi grid cutoff [a.u.]: 1) grid level                               250.0
 QS|                           2) grid level                                83.3
 QS|                           3) grid level                                27.8
 QS|                           4) grid level                                 9.3
 QS| Grid level progression factor:                                          3.0
 QS| Relative density cutoff [a.u.]:                                        50.0
 QS| Interaction thresholds: eps_pgf_orb:                                1.0E-12
 QS|                         eps_filter_matrix:                          0.0E+00
 QS|                         eps_core_charge:                            1.0E-14
 QS|                         eps_rho_gspace:                             1.0E-12
 QS|                         eps_rho_rspace:                             1.0E-12
 QS|                         eps_gvg_rspace:                             1.0E-06
 QS|                         eps_ppl:                                    1.0E-02
 QS|                         eps_ppnl:                                   1.0E-08
 QS| GAPW|      One center basis from orbital basis primitives
 QS| GAPW|                   eps_fit:                                    1.0E-04
 QS| GAPW|                   eps_iso:                                    1.0E-12
 QS| GAPW|                   eps_svd:                                    1.0E-08
 QS| GAPW|                   eps_cpc:                                    1.0E-12
 QS| GAPW|   atom-r-grid: quadrature:                                     GC_LOG
 QS| GAPW|      atom-s-grid:  max l :                                          6
 QS| GAPW|      max_l_rho0 :                                                   2
 QS| GAPW|      At least one kind is NOT PAW, i.e. it has only soft AO 
 QS| GAPW|      The NOT PAW atoms are treated fully GPW


 ATOMIC KIND INFORMATION

  1. Atomic kind: Mo                                    Number of atoms:       1

     Orbital Basis Set                                     aug-SZV-MOLOPT-GTH-SR

       Number of orbital shell sets:                                           1
       Number of orbital shells:                                               8
       Number of primitive Cartesian functions:                                7
       Number of Cartesian basis functions:                                   31
       Number of spherical basis functions:                                   26
       Norm type:                                                              2

       Normalised Cartesian orbitals:

                        Set   Shell   Orbital            Exponent    Coefficient

                          1       1    2s                0.052949       0.001981
                                                         0.083802      -0.010762
                                                         0.189498       0.027372
                                                         0.439257       0.078864
                                                         0.894040       0.689563
                                                         1.999996       0.475974
                                                         2.540273      -1.291314

                          1       2    3s                0.052949      -0.030340
                                                         0.083802      -0.064725
                                                         0.189498      -0.028997
                                                         0.439257       0.016258
                                                         0.894040       0.125661
                                                         1.999996      -0.186721
                                                         2.540273       0.199824

                          1       3    4s                0.052949       0.000293
                                                         0.083802       0.017891
                                                         0.189498       0.174119
                                                         0.439257       0.000338
                                                         0.894040       0.000124
                                                         1.999996       0.000000
                                                         2.540273       0.000000

                          1       4    3px               0.052949       0.000064
                                                         0.083802      -0.000118
                                                         0.189498      -0.006020
                                                         0.439257      -0.180857
                                                         0.894040      -0.605502
                                                         1.999996      -2.548091
                                                         2.540273       2.808966
                          1       4    3py               0.052949       0.000064
                                                         0.083802      -0.000118
                                                         0.189498      -0.006020
                                                         0.439257      -0.180857
                                                         0.894040      -0.605502
                                                         1.999996      -2.548091
                                                         2.540273       2.808966
                          1       4    3pz               0.052949       0.000064
                                                         0.083802      -0.000118
                                                         0.189498      -0.006020
                                                         0.439257      -0.180857
                                                         0.894040      -0.605502
                                                         1.999996      -2.548091
                                                         2.540273       2.808966

                          1       5    4px               0.052949       0.016064
                                                         0.083802       0.029646
                                                         0.189498       0.043571
                                                         0.439257      -0.099073
                                                         0.894040       0.009322
                                                         1.999996       0.000000
                                                         2.540273       0.000000
                          1       5    4py               0.052949       0.016064
                                                         0.083802       0.029646
                                                         0.189498       0.043571
                                                         0.439257      -0.099073
                                                         0.894040       0.009322
                                                         1.999996       0.000000
                                                         2.540273       0.000000
                          1       5    4pz               0.052949       0.016064
                                                         0.083802       0.029646
                                                         0.189498       0.043571
                                                         0.439257      -0.099073
                                                         0.894040       0.009322
                                                         1.999996       0.000000
                                                         2.540273       0.000000

                          1       6    4dx2              0.052949       0.000173
                                                         0.083802       0.001355
                                                         0.189498       0.023725
                                                         0.439257       0.160904
                                                         0.894040       0.370223
                                                         1.999996       2.115795
                                                         2.540273      -1.655651
                          1       6    4dxy              0.052949       0.000300
                                                         0.083802       0.002348
                                                         0.189498       0.041094
                                                         0.439257       0.278694
                                                         0.894040       0.641245
                                                         1.999996       3.664664
                                                         2.540273      -2.867672
                          1       6    4dxz              0.052949       0.000300
                                                         0.083802       0.002348
                                                         0.189498       0.041094
                                                         0.439257       0.278694
                                                         0.894040       0.641245
                                                         1.999996       3.664664
                                                         2.540273      -2.867672
                          1       6    4dy2              0.052949       0.000173
                                                         0.083802       0.001355
                                                         0.189498       0.023725
                                                         0.439257       0.160904
                                                         0.894040       0.370223
                                                         1.999996       2.115795
                                                         2.540273      -1.655651
                          1       6    4dyz              0.052949       0.000300
                                                         0.083802       0.002348
                                                         0.189498       0.041094
                                                         0.439257       0.278694
                                                         0.894040       0.641245
                                                         1.999996       3.664664
                                                         2.540273      -2.867672
                          1       6    4dz2              0.052949       0.000173
                                                         0.083802       0.001355
                                                         0.189498       0.023725
                                                         0.439257       0.160904
                                                         0.894040       0.370223
                                                         1.999996       2.115795
                                                         2.540273      -1.655651

                          1       7    5dx2              0.052949       0.000036
                                                         0.083802       0.003451
                                                         0.189498       0.050397
                                                         0.439257       0.185190
                                                         0.894040      -0.191024
                                                         1.999996       0.000000
                                                         2.540273       0.000000
                          1       7    5dxy              0.052949       0.000062
                                                         0.083802       0.005978
                                                         0.189498       0.087290
                                                         0.439257       0.320758
                                                         0.894040      -0.330863
                                                         1.999996       0.000000
                                                         2.540273       0.000000
                          1       7    5dxz              0.052949       0.000062
                                                         0.083802       0.005978
                                                         0.189498       0.087290
                                                         0.439257       0.320758
                                                         0.894040      -0.330863
                                                         1.999996       0.000000
                                                         2.540273       0.000000
                          1       7    5dy2              0.052949       0.000036
                                                         0.083802       0.003451
                                                         0.189498       0.050397
                                                         0.439257       0.185190
                                                         0.894040      -0.191024
                                                         1.999996       0.000000
                                                         2.540273       0.000000
                          1       7    5dyz              0.052949       0.000062
                                                         0.083802       0.005978
                                                         0.189498       0.087290
                                                         0.439257       0.320758
                                                         0.894040      -0.330863
                                                         1.999996       0.000000
                                                         2.540273       0.000000
                          1       7    5dz2              0.052949       0.000036
                                                         0.083802       0.003451
                                                         0.189498       0.050397
                                                         0.439257       0.185190
                                                         0.894040      -0.191024
                                                         1.999996       0.000000
                                                         2.540273       0.000000

                          1       8    5fx3              0.052949      -0.000274
                                                         0.083802       0.000760
                                                         0.189498       0.005893
                                                         0.439257       0.027686
                                                         0.894040       0.936958
                                                         1.999996       0.000000
                                                         2.540273       0.000000
                          1       8    5fx2y             0.052949      -0.000612
                                                         0.083802       0.001698
                                                         0.189498       0.013177
                                                         0.439257       0.061909
                                                         0.894040       2.095101
                                                         1.999996       0.000000
                                                         2.540273       0.000000
                          1       8    5fx2z             0.052949      -0.000612
                                                         0.083802       0.001698
                                                         0.189498       0.013177
                                                         0.439257       0.061909
                                                         0.894040       2.095101
                                                         1.999996       0.000000
                                                         2.540273       0.000000
                          1       8    5fxy2             0.052949      -0.000612
                                                         0.083802       0.001698
                                                         0.189498       0.013177
                                                         0.439257       0.061909
                                                         0.894040       2.095101
                                                         1.999996       0.000000
                                                         2.540273       0.000000
                          1       8    5fxyz             0.052949      -0.001061
                                                         0.083802       0.002942
                                                         0.189498       0.022824
                                                         0.439257       0.107229
                                                         0.894040       3.628821
                                                         1.999996       0.000000
                                                         2.540273       0.000000
                          1       8    5fxz2             0.052949      -0.000612
                                                         0.083802       0.001698
                                                         0.189498       0.013177
                                                         0.439257       0.061909
                                                         0.894040       2.095101
                                                         1.999996       0.000000
                                                         2.540273       0.000000
                          1       8    5fy3              0.052949      -0.000274
                                                         0.083802       0.000760
                                                         0.189498       0.005893
                                                         0.439257       0.027686
                                                         0.894040       0.936958
                                                         1.999996       0.000000
                                                         2.540273       0.000000
                          1       8    5fy2z             0.052949      -0.000612
                                                         0.083802       0.001698
                                                         0.189498       0.013177
                                                         0.439257       0.061909
                                                         0.894040       2.095101
                                                         1.999996       0.000000
                                                         2.540273       0.000000
                          1       8    5fyz2             0.052949      -0.000612
                                                         0.083802       0.001698
                                                         0.189498       0.013177
                                                         0.439257       0.061909
                                                         0.894040       2.095101
                                                         1.999996       0.000000
                                                         2.540273       0.000000
                          1       8    5fz3              0.052949      -0.000274
                                                         0.083802       0.000760
                                                         0.189498       0.005893
                                                         0.439257       0.027686
                                                         0.894040       0.936958
                                                         1.999996       0.000000
                                                         2.540273       0.000000

     RI Auxiliary Basis Set             RI_aug-SZV-MOLOPT-GTH-SR_N_RI_071_s_p_d_

       Number of orbital shell sets:                                          17
       Number of orbital shells:                                              17
       Number of primitive Cartesian functions:                               17
       Number of Cartesian basis functions:                                  101
       Number of spherical basis functions:                                   71
       Norm type:                                                              2

       Normalised Cartesian orbitals:

                        Set   Shell   Orbital            Exponent    Coefficient

                          1       1    1s                0.131512       0.155645

                          2       1    7px               0.160998       0.145367
                          2       1    7py               0.160998       0.145367
                          2       1    7pz               0.160998       0.145367

                          3       1    2s                0.264634       0.262963

                          4       1   15gx4              0.279187       0.033315
                          4       1   15gx3y             0.279187       0.088144
                          4       1   15gx3z             0.279187       0.088144
                          4       1   15gx2y2            0.279187       0.113794
                          4       1   15gx2yz            0.279187       0.197097
                          4       1   15gx2z2            0.279187       0.113794
                          4       1   15gxy3             0.279187       0.088144
                          4       1   15gxy2z            0.279187       0.197097
                          4       1   15gxyz2            0.279187       0.197097
                          4       1   15gxz3             0.279187       0.088144
                          4       1   15gy4              0.279187       0.033315
                          4       1   15gy3z             0.279187       0.088144
                          4       1   15gy2z2            0.279187       0.113794
                          4       1   15gyz3             0.279187       0.088144
                          4       1   15gz4              0.279187       0.033315

                          5       1    8px               0.394518       0.445680
                          5       1    8py               0.394518       0.445680
                          5       1    8pz               0.394518       0.445680

                          6       1   11dx2              0.395905       0.325233
                          6       1   11dxy              0.395905       0.563320
                          6       1   11dxz              0.395905       0.563320
                          6       1   11dy2              0.395905       0.325233
                          6       1   11dyz              0.395905       0.563320
                          6       1   11dz2              0.395905       0.325233

                          7       1   13fx3              0.522089       0.341099
                          7       1   13fx2y             0.522089       0.762720
                          7       1   13fx2z             0.522089       0.762720
                          7       1   13fxy2             0.522089       0.762720
                          7       1   13fxyz             0.522089       1.321070
                          7       1   13fxz2             0.522089       0.762720
                          7       1   13fy3              0.522089       0.341099
                          7       1   13fy2z             0.522089       0.762720
                          7       1   13fyz2             0.522089       0.762720
                          7       1   13fz3              0.522089       0.341099

                          8       1    3s                0.529077       0.442129

                          9       1    4s                1.047615       0.738008

                         10       1    9px               1.153622       1.704195
                         10       1    9py               1.153622       1.704195
                         10       1    9pz               1.153622       1.704195

                         11       1   12dx2              1.329303       2.708639
                         11       1   12dxy              1.329303       4.691501
                         11       1   12dxz              1.329303       4.691501
                         11       1   12dy2              1.329303       2.708639
                         11       1   12dyz              1.329303       4.691501
                         11       1   12dz2              1.329303       2.708639

                         12       1   14fx3              1.690595       4.797813
                         12       1   14fx2y             1.690595      10.728236
                         12       1   14fx2z             1.690595      10.728236
                         12       1   14fxy2             1.690595      10.728236
                         12       1   14fxyz             1.690595      18.581849
                         12       1   14fxz2             1.690595      10.728236
                         12       1   14fy3              1.690595       4.797813
                         12       1   14fy2z             1.690595      10.728236
                         12       1   14fyz2             1.690595      10.728236
                         12       1   14fz3              1.690595       4.797813

                         13       1   16gx4              2.004716       7.534958
                         13       1   16gx3y             2.004716      19.935625
                         13       1   16gx3z             2.004716      19.935625
                         13       1   16gx2y2            2.004716      25.736781
                         13       1   16gx2yz            2.004716      44.577413
                         13       1   16gx2z2            2.004716      25.736781
                         13       1   16gxy3             2.004716      19.935625
                         13       1   16gxy2z            2.004716      44.577413
                         13       1   16gxyz2            2.004716      44.577413
                         13       1   16gxz3             2.004716      19.935625
                         13       1   16gy4              2.004716       7.534958
                         13       1   16gy3z             2.004716      19.935625
                         13       1   16gy2z2            2.004716      25.736781
                         13       1   16gyz3             2.004716      19.935625
                         13       1   16gz4              2.004716       7.534958

                         14       1    5s                2.095930       1.241488

                         15       1   17hx5              2.117166       8.492732
                         15       1   17hx4y             2.117166      25.478197
                         15       1   17hx4z             2.117166      25.478197
                         15       1   17hx3y2            2.117166      38.918588
                         15       1   17hx3yz            2.117166      67.408973
                         15       1   17hx3z2            2.117166      38.918588
                         15       1   17hx2y3            2.117166      38.918588
                         15       1   17hx2y2z           2.117166      87.024609
                         15       1   17hx2yz2           2.117166      87.024609
                         15       1   17hx2z3            2.117166      38.918588
                         15       1   17hxy4             2.117166      25.478197
                         15       1   17hxy3z            2.117166      67.408973
                         15       1   17hxy2z2           2.117166      87.024609
                         15       1   17hxyz3            2.117166      67.408973
                         15       1   17hxz4             2.117166      25.478197
                         15       1   17hy5              2.117166       8.492732
                         15       1   17hy4z             2.117166      25.478197
                         15       1   17hy3z2            2.117166      38.918588
                         15       1   17hy2z3            2.117166      38.918588
                         15       1   17hyz4             2.117166      25.478197
                         15       1   17hz5              2.117166       8.492732

                         16       1   10px               3.762709       7.469918
                         16       1   10py               3.762709       7.469918
                         16       1   10pz               3.762709       7.469918

                         17       1    6s                4.220249       2.098523

       Atomic covalent radius [Angstrom]:                                  1.300

       Atomic van der Waals radius [Angstrom]:                             1.670

     GTH Potential information for                                   GTH-PBE-q14

       Description:                       Goedecker-Teter-Hutter pseudopotential
                                           Goedecker et al., PRB 54, 1703 (1996)
                                          Hartwigsen et al., PRB 58, 3641 (1998)
                                                      Krack, TCA 114, 145 (2005)

       Gaussian exponent of the core charge distribution:               2.704164
       Electronic configuration (s p d ...):                           3   6   5

       Parameters of the local part of the GTH pseudopotential:

                          rloc        C1          C2          C3          C4
                        0.430000   28.609368   -4.721803

       Parameters of the non-local part of the GTH (SOC) pseudopotential:

                   l      r(l)      h(i,j,l)
                                    k(i,j,l)
                   0    0.345216    0.146303    2.762005
                                    2.762005   -3.565733
                   1    0.416888   -0.190785   -0.728744
                                   -0.728744    0.862262
                                    0.101036    0.157628
                                    0.157628   -0.186508
                   2    0.420508    1.216814   -2.686463
                                   -2.686463    3.046162
                                    0.001360    0.022739
                                    0.022739   -0.025783

  2. Atomic kind: Se                                    Number of atoms:       2

     Orbital Basis Set                                        aug-SZV-MOLOPT-GTH

       Number of orbital shell sets:                                           1
       Number of orbital shells:                                               5
       Number of primitive Cartesian functions:                                5
       Number of Cartesian basis functions:                                   14
       Number of spherical basis functions:                                   13
       Norm type:                                                              2

       Normalised Cartesian orbitals:

                        Set   Shell   Orbital            Exponent    Coefficient

                          1       1    2s                0.107173      -0.034327
                                                         0.180000       0.000000
                                                         0.303575      -0.265065
                                                         1.029752      -0.111246
[...]

 -------------------------------------------------------------------------------
 -                                                                             -
 -                                DBM STATISTICS                               -
 -                                                                             -
 -------------------------------------------------------------------------------
    M  x    N  x    K                                          COUNT     PERCENT
    ?  x    ?  x    ?                                      927840833      49.62%
  ???  x   ??  x   ??                                      616856901      32.99%
   ??  x   ??  x  ???                                      233833878      12.51%
 >999  x   ??  x   ??                                       77602070       4.15%
   ??  x   ??  x >999                                       13722421       0.73%
 -------------------------------------------------------------------------------
 Memory consumption                Number of allocations  Used [MiB]  Size [MiB]
 Host                                         2881301971           0           0
 -------------------------------------------------------------------------------

 -------------------------------------------------------------------------------
 -                                                                             -
 -                                GRID STATISTICS                              -
 -                                                                             -
 -------------------------------------------------------------------------------
 LP    KERNEL             BACKEND                              COUNT     PERCENT
 5     integrate general  CPU                                 175500      18.90%
 5     collocate general  CPU                                 170820      18.40%
 6     integrate general  CPU                                 152175      16.39%
 6     collocate general  CPU                                 148117      15.95%
 4     integrate general  CPU                                 142875      15.39%
 4     collocate general  CPU                                 139065      14.98%
 0     collocate general  CPU                                      6       0.00%
 0     integrate general  CPU                                      3       0.00%
 -------------------------------------------------------------------------------

 MEMORY| Estimated peak process memory [MiB]                               79079

 -------------------------------------------------------------------------------
 ----                             MULTIGRID INFO                            ----
 -------------------------------------------------------------------------------
 count for grid        1:          12582          cutoff [a.u.]          250.00
 count for grid        2:          10360          cutoff [a.u.]           83.33
 count for grid        3:          10079          cutoff [a.u.]           27.78
 count for grid        4:           2394          cutoff [a.u.]            9.26
 total gridlevel count  :          35415

 -------------------------------------------------------------------------------
 -                                                                             -
 -                           R E F E R E N C E S                               -
 -                                                                             -
 -------------------------------------------------------------------------------
 
 CP2K version 2025.1 (Development Version), the CP2K developers group (2025).
 CP2K is freely available from https://www.cp2k.org/ .
 
 M. Graml, K. Zollner, D. Hernangmez-Prez, P. E. Faria Junior, J. Wilhelm.
 J. Chem. Theory Comput. 20, 2202-2208 (2024).
 Low-scaling GW algorithm applied to twisted transition-metal dichalcogenide 
 heterobilayers.
 https://doi.org/10.1021/acs.jctc.3c01230

 T. D. Kuehne, M. Iannuzzi, M. Del Ben, V. V. Rybkin, P. Seewald, F. Stein, T. 
 Laino, R. Z. Khaliullin, O. Schuett, F. Schiffmann, D. Golze, J. Wilhelm, S. 
 Chulkov, M. H. Bani-Hashemian, V. Weber, U. Borstnik, M. Taillefumier, A. S. 
 Jakobovits, A. Lazzaro, H. Pabst, T. Mueller, R. Schade, M. Guidon, S. 
 Andermatt, N. Holmberg, G. K. Schenter, A. Hehn, A. Bussy, F. Belleflamme, G. 
 Tabacchi, A. Gloess, M. Lass, I. Bethune, C. J. Mundy, C. Plessl, M. Watkins, 
 J. VandeVondele, M. Krack, J. Hutter.
 J. Chem. Phys. 152, 194103 (2020).
 CP2K: An electronic structure and molecular dynamics software package - 
 Quickstep: Efficient and accurate electronic structure calculations.
 https://doi.org/10.1063/5.0007045

 A. Togo, I. Tanaka.
 arXiv, 1808.01590 (2018).
 Spglib : a software library for crystal symmetry search.

 O. Schuett, P. Messmer, J. Hutter, J. VandeVondele.
 Electronic Structure Calculations on Graphics Processing Units, 173-190 (2016).
 GPU-Accelerated Sparse Matrix-Matrix Multiplication for Linear Scaling Density 
 Functional Theory.
 https://doi.org/10.1002/9781118670712.ch8

 A. Heinecke, G. Henry, M. Hutchinson, H. Pabst.
 Proceedings of Intl. Supercomputing Conference, 981-991 (2016).
 LIBXSMM: Accelerating Small Matrix Multiplications by Runtime Code Generation.
 https://doi.org/10.1109/SC.2016.83

 J. Hutter, M. Iannuzzi, F. Schiffmann, J. VandeVondele.
 WIREs Comput Mol Sci. 4, 15-25 (2014).
 CP2K: atomistic simulations of condensed matter systems.
 https://doi.org/10.1002/wcms.1159

 U. Borstnik, J. VandeVondele, V. Weber, J. Hutter.
 Parallel Comput. 40, 47-58 (2014).
 Sparse matrix multiplication: The distributed block-compressed sparse row 
 library.
 https://doi.org/10.1016/j.parco.2014.03.012

 J. VandeVondele, J. Hutter.
 J. Chem. Phys. 127, 114105 (2007).
 Gaussian basis sets for accurate calculations on molecular systems in gas and 
 condensed phases.
 https://doi.org/10.1063/1.2770708

 M. Krack.
 Theor. Chem. Acc. 114, 145-152 (2005).
 Pseudopotentials for H to Kr optimized for gradient-corrected 
 exchange-correlation functionals.
 https://doi.org/10.1007/s00214-005-0655-y

 M. Frigo, S. G. Johnson.
 Proc. IEEE 93, 216-231 (2005).
 The design and implementation of FFTW3.
 https://doi.org/10.1109/JPROC.2004.840301

 M. Krack, M. Parrinello.
 Phys. Chem. Chem. Phys. 2, 2105-2112 (2000).
 All-electron ab-initio molecular dynamics.
 https://doi.org/10.1039/b001167n

 G. Lippert, J. Hutter, M. Parrinello.
 Theor. Chem. Acc. 103, 124-140 (1999).
 The Gaussian and augmented-plane-wave density functional method for ab initio 
 molecular dynamics simulations.
 https://doi.org/10.1007/s002140050523

 C. Hartwigsen, S. Goedecker, J. Hutter.
 Phys. Rev. B 58, 3641-3662 (1998).
 Relativistic separable dual-space Gaussian pseudopotentials from H to Rn.
 https://doi.org/10.1103/PhysRevB.58.3641

 S. Goedecker, M. Teter, J. Hutter.
 Phys. Rev. B 54, 1703-1710 (1996).
 Separable dual-space Gaussian pseudopotentials.
 https://doi.org/10.1103/PhysRevB.54.1703

 J. P. Perdew, K. Burke, M. Ernzerhof.
 Phys. Rev. Lett. 77, 3865-3868 (1996).
 Generalized gradient approximation made simple.
 https://doi.org/10.1103/PhysRevLett.77.3865


 -------------------------------------------------------------------------------
 -                                                                             -
 -                                T I M I N G                                  -
 -                                                                             -
 -------------------------------------------------------------------------------
 SUBROUTINE                       CALLS  ASD         SELF TIME        TOTAL TIME
                                MAXIMUM       AVERAGE  MAXIMUM  AVERAGE  MAXIMUM
 CP2K                                 1  1.0     0.02     0.02 88955.05 88955.05
 qs_energies                          1  2.0     0.00     0.00 88954.70 88954.70
 qs_energies_properties               1  3.0     0.00     0.00 88850.09 88850.09
 post_scf_bandstructure               1  4.0     0.00     0.00 88850.09 88850.09
 gw                                   1  5.0     0.00     0.00 88841.80 88841.80
 gw_calc_small_cell_full_kp           1  6.0     0.07     0.07 88288.23 88288.23
 dbt_total                      *******  9.6   249.86   249.86 84697.25 84697.25
 dbt_contract                   ******* 10.4   501.43   501.43 71113.05 71113.05
 dbt_tas_multiply               ******* 12.9    51.28    51.28 66418.99 66418.99
 dbt_tas_total                  ******* 13.9  2616.09  2616.09 66386.18 66386.18
 compute_Sigma_c                      1  7.0     0.05     0.05 48810.99 48810.99
 compute_chi                          1  7.0     1.58     1.58 33291.02 33291.02
 dbt_tas_dbm                    ******* 14.9    50.73    50.73 32658.24 32658.24
 dbm_multiply                   ******* 16.9 32532.01 32532.01 32532.01 32532.01
 contract_to_Sigma                 5985  8.0   643.88   643.88 27993.72 27993.72
 contract_W                        3264  8.0    63.00    63.00 26060.22 26060.22
 dbt_tas_estimate_result_nze    ******* 13.4  4596.72  4596.72 22348.25 22348.25
 contract_to_Sigma_3c_x_G       *******  9.0    16.89    16.89 18359.35 18359.35
 contract_M_occ_vir_to_chi         2870  8.0  1059.21  1059.21 16745.95 16745.95
 G_times_3c                      343076  8.0    76.02    76.02 16511.98 16511.98
 dbt_copy                       ******* 10.9   441.10   441.10 15682.45 15682.45
 dbt_tas_mm_3T                  ******* 16.1    23.75    23.75 14162.88 14162.88
 dbt_reshape                    ******* 11.8  9382.14  9382.14 11820.53 11820.53
 dbt_tas_mm_2                   ******* 16.0    25.97    25.97 11279.32 11279.32
 contract_to_Sigma_contract      351475  9.0    78.84    78.84  8815.38  8815.38
 dbt_tas_reshape                ******* 15.5   556.23   556.23  8267.67  8267.67
 get_t_3c_int                   *******  9.4   339.46   339.46  7761.47  7761.47
 dbt_tas_mm_1N                  ******* 15.5    10.22    10.22  7155.20  7155.20
 reshape_mm_small               ******* 14.9  1779.81  1779.81  5947.54  5947.54
 compute_Sigma_x                      1  7.0     0.02     0.02  5285.67  5285.67
 convert_to_new_pgrid           ******* ****  1442.49  1442.49  4431.13  4431.13
 dbt_tas_reshape_buffer_fill    ******* 16.5  3681.93  3681.93  3681.93  3681.93
 dbm_reserve_blocks             ******* -1.3  3520.23  3520.23  3520.23  3520.23
 dbt_tas_replicate              ******* 14.9  2203.32  2203.32  3453.02  3453.02
 dbt_remap                      5296383 11.0   312.17   312.17  3095.03  3095.03
 dbt_tas_reserve_blocks_index   ******* -7.3   141.11   141.11  3048.65  3048.65
 dbm_copy                       ******* 15.9  2988.64  2988.64  2988.64  2988.64
 dbt_tas_reshape_buffer_obtain  ******* 16.5  2028.36  2028.36  2938.27  2938.27
 dbt_tas_create_new             ******* -5.8  2155.81  2155.81  2155.81  2155.81
 dbt_tas_copy                   ******* 12.4  1392.68  1392.68  2012.81  2012.81
 dbt_tas_reserve_blocks_templat ******* 14.1   711.46   711.46  1789.28  1789.28
 reshape_mm_compatible          ******* 14.9   499.85   499.85  1475.41  1475.41
 dbt_communicate_buffer         ******* 12.8  1394.34  1394.34  1394.34  1394.34
 dbm_add                        ******* 14.9  1367.47  1367.47  1367.47  1367.47
 dbt_reserve_blocks_index_array ******* 12.8    41.48    41.48  1195.88  1195.88
 dbt_reserve_blocks_index       ******* 13.8    83.74    83.74  1155.97  1155.97
 dbt_tas_merge                  ******* 15.0   876.42   876.42  1113.38  1113.38
 dbt_copy_nocomm                4422110 11.0   819.18   819.18  1044.75  1044.75
 dbt_permute_index              ******* 12.2   901.81   901.81  1009.47  1009.47
 dbt_tas_create_split           ******* ****    83.31    83.31   891.14   891.14
 compute_W_real_space                 1  7.0     7.95     7.95   877.16   877.16
 dbt_tas_create_split_rows_or_c ******* ****   278.84   278.84   807.83   807.83
 dbt_align_index                ******* 11.4   104.98   104.98   790.22   790.22
 dbm_filter                     ******* 14.9   746.32   746.32   746.32   746.32
 dbt_tas_distribution_new       ******* 15.8   377.47   377.47   690.02   690.02
 change_split                   ******* 15.4   145.58   145.58   558.82   558.82
 create_and_init_bs_env_for_gw        1  6.0     0.01     0.01   553.57   553.57
 dbt_tas_reshape_get_coord      ******* 16.5   536.51   536.51   536.51   536.51
 dbt_tas_communicate_buffer     ******* 17.2   525.58   525.58   525.58   525.58
 dbt_tas_reshape_communicate_bu ******* 16.5    36.99    36.99   486.86   486.86
 compute_Minv_and_Vsqrt               1  8.0     0.47     0.47   468.15   468.15
 setup_cells_3c                       1  7.0     3.10     3.10   450.45   450.45
 build_2c_coulomb_matrix_kp_sma       2  9.0     0.16     0.16   449.11   449.11
 build_3c_integral_block         313335  8.0   180.58   180.58   447.35   447.35
 build_2c_coulomb_matrix_kp_sma   23040 10.0   430.59   430.59   430.59   430.59
 dbm_scale                      ******* 14.3   402.28   402.28   402.28   402.28
 reshape_mm_template            ******* 15.5   223.16   223.16   380.13   380.13
 mp_cart_create                 ******* -0.3   228.46   228.46   301.18   301.18
 add_R                          *******  2.7   202.37   202.37   278.89   278.89
 abc_contract_xsmm              3083581  9.0   266.77   266.77   266.77   266.77
 dbt_distribution_new_expert    ******* 12.5   105.56   105.56   225.59   225.59
 dbt_reserve_blocks_template    4422110 12.0    46.74    46.74   225.56   225.56
 dbt_destroy                    ******* 11.5   217.03   217.03   222.36   222.36
 mp_cart_get                    ******* -0.1   218.83   218.83   218.83   218.83
 dbt_create_new                 5323896 12.0    60.78    60.78   216.37   216.37
 add_rs_to_ikp                  *******  9.6   191.49   191.49   191.49   191.49
 trafo_rs_to_ikp                  29952  8.5     5.16     5.16   178.53   178.53
 mp_comm_dup                    ******* ****   122.74   122.74   166.38   166.38
 add_ikp_to_rs                  *******  9.7   138.26   138.26   138.26   138.26
 power                            39456  8.2     6.97     6.97   137.88   137.88
 mp_comm_size                   *******  0.1   137.15   137.15   137.15   137.15
 mp_comm_split_direct           ******* -9.6   104.92   104.92   136.10   136.10
 diag_complex                     39456  9.2   130.91   130.91   130.91   130.91
 is_cell_in_index_to_cell       ******* -1.4   130.40   130.40   130.40   130.40
 mult_W_with_Minv                    10  8.0     1.94     1.94   129.52   129.52
 add_ikp_to_all_rs                20736  8.3     3.40     3.40   120.00   120.00
 dbt_tas_mp_comm                ******* 13.0    55.81    55.81   115.90   115.90
 scf_env_do_scf                       1  3.0     0.00     0.00   104.31   104.31
 scf_env_do_scf_inner_loop           72  4.0     0.01     0.01   104.31   104.31
 mp_comm_rank                   *******  0.1    99.63    99.63    99.63    99.63
 mp_comm_free                   ******* -0.3    90.68    90.68    90.68    90.68
 dbt_tas_replicate_communicate_ ******* 15.9    22.29    22.29    76.51    76.51
 qs_scf_new_mos_kp                   72  5.0     0.00     0.00    74.62    74.62
 do_general_diag_kp                  72  6.0     0.23     0.23    74.62    74.62
 compute_3c_integrals                 1  7.0     0.03     0.03    63.68    63.68
 build_3c_integrals                   1  8.0    61.63    61.63    63.42    63.42
 mp_sync                        *******  2.6    59.69    59.69    59.69    59.69
 dbt_tas_reshape_alltoall       ******* 16.5    27.55    27.55    57.12    57.12
 mp_alltoall_i                  ******* -5.5    52.23    52.23    52.23    52.23
 G_occ_vir                           41  8.0     0.20     0.20    39.92    39.92
 dbt_nd_mp_comm                 5323891 12.0    12.13    12.13    38.91    38.91
 dbt_pgrid_create_expert        ******* 13.5    18.64    18.64    35.03    35.03
 dbt_tas_merge_communicate_buff ******* 16.0    11.99    11.99    33.48    33.48
 mp_sum_l                       *******  0.9    31.84    31.84    31.84    31.84
 fm_add_ikp_to_rs                 23616  9.0     4.37     4.37    26.07    26.07
 rskp_transform                   45816  7.1    24.34    24.34    24.34    24.34
 setup_parallelization_Delta_R        1  7.0     0.00     0.00    23.60    23.60
 compute_n_tensor_ops_Delta_R         1  8.0    11.04    11.04    23.36    23.36
 compute_QP_energies                  1  7.0     0.02     0.02    23.31    23.31
 trafo_to_k_and_nn                15204  8.0     0.12     0.12    23.20    23.20
 copy_dbcsr_to_fm                116633  7.6     0.40     0.40    21.71    21.71
 dbt_distribution_destroy       ******* 12.5    18.69    18.69    21.48    21.48
 mp_dims_create                 ******* 14.3    21.37    21.37    21.37    21.37
 dbcsr_complete_redistribute     185812  9.0     3.08     3.08    21.13    21.13
 kpoint_density_transform            72  7.0     0.07     0.07    20.80    20.80
 dbt_tas_replicate_alltoall     ******* 15.9    16.41    16.41    20.49    20.49
 fm_trafo_rs_to_ikp               15204  9.0     2.27     2.27    20.39    20.39
 dbt_tas_merge_alltoall         ******* 16.0    15.83    15.83    20.35    20.35
 dbcsr_finalize                  600331 10.2     4.87     4.87    20.20    20.20
 dbt_buffer_get_index           ******* 16.8    19.71    19.71    19.71    19.71
 mp_bcast_i                     ******* -9.6    18.58    18.58    18.58    18.58
 add_V_L                          46080 10.0    18.33    18.33    18.33    18.33
 qs_ks_build_kohn_sham_matrix        75  7.0     0.02     0.02    17.09    17.09
 mp_cart_rank                   ******* ****    16.90    16.90    16.90    16.90
 qs_ks_update_qs_env                 72  5.0     0.00     0.00    16.60    16.60
 rebuild_ks_matrix                   72  6.0     0.00     0.00    16.45    16.45
 fm_to_local_tensor               27508  9.0     0.34     0.34    14.05    14.05
 get_Minv_Vtr_Minv_R                  1  8.0     0.17     0.17    14.05    14.05
 heuristic_RI_regularization          1  7.0     0.00     0.00    13.83    13.83
 copy_fm_to_dbcsr                 69179  8.8     0.13     0.13    13.40    13.40
 dbcsr_merge_all                 231768 11.4    11.44    11.44    13.21    13.21
 mp_max_i                       ******* 11.4    13.18    13.18    13.18    13.18
 sum_up_and_integrate                75  8.0     0.00     0.00    12.68    12.68
 integrate_v_rspace                  75  9.0     0.06     0.06    12.66    12.66
 grid_integrate_task_list            75 10.0    12.30    12.30    12.30    12.30
 cp_cfm_heevd                     23632  7.9     0.01     0.01    11.51    11.51
 cp_cfm_heevd_base                23632  8.9    11.50    11.50    11.50    11.50
 dbt_create_template             863728  9.0    11.48    11.48    11.48    11.48
 transform_dmat                   20736  8.0    11.15    11.15    11.15    11.15
 cp_cfm_geeig                     20736  7.0     0.05     0.05    10.31    10.31
 qs_rho_update_rho_low               73  5.0     0.00     0.00    10.06    10.06
 calculate_rho_elec                  73  6.0     0.08     0.08    10.03    10.03
 grid_collocate_task_list            73  7.0     9.36     9.36     9.36     9.36
 -------------------------------------------------------------------------------

 The number of warnings for this run is : 1
 
 -------------------------------------------------------------------------------
  **** **** ******  **  PROGRAM ENDED AT                 2025-04-25 10:13:04.137
 ***** ** ***  *** **   PROGRAM RAN ON             localadmin-ThinkPad-P16-Gen-2
 **    ****   ******    PROGRAM RAN BY                                localadmin
 ***** **    ** ** **   PROGRAM PROCESS ID                                 49381
  **** **  *******  **  PROGRAM STOPPED IN /home/localadmin/Documents/Benchmark_
                                           TMD/SNG/2_MoSe2
