 DBCSR| CPU Multiplication driver                                           BLAS (U)
 DBCSR| Multrec recursion limit                                              512 (U)
 DBCSR| Multiplication stack size                                           1000 (D)
 DBCSR| Maximum elements for images                                    UNLIMITED (U)
 DBCSR| Multiplicative factor virtual images                                   1 (U)
 DBCSR| Use multiplication densification                                       T (D)
 DBCSR| Multiplication size stacks                                             3 (U)
 DBCSR| Use memory pool for CPU allocation                                     F (U)
 DBCSR| Number of 3D layers                                               SINGLE (U)
 DBCSR| Use MPI memory allocation                                              F (U)
 DBCSR| Use RMA algorithm                                                      F (U)
 DBCSR| Use Communication thread                                               T (U)
 DBCSR| Communication thread load                                             45 (D)
 DBCSR| MPI: My process id                                                     0
 DBCSR| MPI: Number of processes                                             128
 DBCSR| OMP: Current number of threads                                        12
 DBCSR| OMP: Max number of threads                                            12
 DBCSR| Split modifier for TAS multiplication algorithm                  1.0E+00 (U)


  **** **** ******  **  PROGRAM STARTED AT               2025-02-06 01:01:10.404
 ***** ** ***  *** **   PROGRAM STARTED ON                          f01r01c06s03
 **    ****   ******    PROGRAM STARTED BY                               di38fab
 ***** **    ** ** **   PROGRAM PROCESS ID                               1715589
  **** **  *******  **  PROGRAM STARTED IN /hppfs/scratch/04/di38fab/04_TMD/2_Mo
                                           Se2/DZVP/1e-3

 CP2K| version string:                 CP2K version 2025.1 (Development Version)
 CP2K| source code revision number:                             unknown revision
 CP2K| cp2kflags: omp libint fftw3 libxc parallel scalapack max_contr=4         
 CP2K| is freely available from                            https://www.cp2k.org/
 CP2K| Program compiled at                       Fri 31 Jan 2025 11:39:30 PM CET
 CP2K| Program compiled on                                               login02
 CP2K| Program compiled for                                        Supermuc-foss
 CP2K| Data directory path                  /hppfs/work/pn36zo/di38fab/cp2k/data
 CP2K| Input file name                                                    GW.inp

 GLOBAL| Force Environment number                                              1
 GLOBAL| Basis set file name            /hppfs/scratch/04/di38fab/04_TMD/BASIS_A
 GLOBAL| Potential file name            /hppfs/work/pn36zo/di38fab/cp2k/data/GTH
 GLOBAL| MM Potential file name                                     MM_POTENTIAL
 GLOBAL| Coordinate file name                                      __STD_INPUT__
 GLOBAL| Method name                                                        CP2K
 GLOBAL| Project name                                                      MoSe2
 GLOBAL| Run type                                                         ENERGY
 GLOBAL| FFT library                                                       FFTW3
 GLOBAL| Diagonalization library                                       ScaLAPACK
 GLOBAL| DGEMM library                                                      BLAS
 GLOBAL| Orthonormality check for eigenvectors                          DISABLED
 GLOBAL| Matrix multiplication library                                 ScaLAPACK
 GLOBAL| All-to-all communication in single precision                          F
 GLOBAL| FFTs using library dependent lengths                                  F
 GLOBAL| Grid backend                                                       AUTO
 GLOBAL| Global print level                                               MEDIUM
 GLOBAL| MPI I/O enabled                                                       T
 GLOBAL| Total number of message passing processes                           128
 GLOBAL| Number of threads for this process                                   12
 GLOBAL| This output is from process                                           0
 GLOBAL| OpenMP stack size per thread (OMP_STACKSIZE)                    default
 GLOBAL| CPU model name             Intel(R) Xeon(R) Platinum 8174 CPU @ 3.10GHz

 MEMORY| system memory details [Kb]
 MEMORY|                        rank 0           min           max       average
 MEMORY| MemTotal            792068880     792068852     792068932     792068892
 MEMORY| MemFree             779148312     778528548     779341072     778808270
 MEMORY| Buffers                     0             0             0             0
 MEMORY| Cached                2285340       2274036       2487776       2298093
 MEMORY| Slab                  1172396       1089456       1193172       1170130
 MEMORY| SReclaimable           267584        253384        270700        264269
 MEMORY| MemLikelyFree       781701236     781170460     781868492     781370633


 *** Fundamental physical constants (SI units) ***

 *** Literature: B. J. Mohr and B. N. Taylor,
 ***             CODATA recommended values of the fundamental physical
 ***             constants: 2006, Web Version 5.1
 ***             http://physics.nist.gov/constants

 Speed of light in vacuum [m/s]                             2.99792458000000E+08
 Magnetic constant or permeability of vacuum [N/A**2]       1.25663706143592E-06
 Electric constant or permittivity of vacuum [F/m]          8.85418781762039E-12
 Planck constant (h) [J*s]                                  6.62606896000000E-34
 Planck constant (h-bar) [J*s]                              1.05457162825177E-34
 Elementary charge [C]                                      1.60217648700000E-19
 Electron mass [kg]                                         9.10938215000000E-31
 Electron g factor [ ]                                     -2.00231930436220E+00
 Proton mass [kg]                                           1.67262163700000E-27
 Fine-structure constant                                    7.29735253760000E-03
 Rydberg constant [1/m]                                     1.09737315685270E+07
 Avogadro constant [1/mol]                                  6.02214179000000E+23
 Boltzmann constant [J/K]                                   1.38065040000000E-23
 Atomic mass unit [kg]                                      1.66053878200000E-27
 Bohr radius [m]                                            5.29177208590000E-11

 *** Conversion factors ***

 [u] -> [a.u.]                                              1.82288848426455E+03
 [Angstrom] -> [Bohr] = [a.u.]                              1.88972613288564E+00
 [a.u.] = [Bohr] -> [Angstrom]                              5.29177208590000E-01
 [a.u.] -> [s]                                              2.41888432650478E-17
 [a.u.] -> [fs]                                             2.41888432650478E-02
 [a.u.] -> [J]                                              4.35974393937059E-18
 [a.u.] -> [N]                                              8.23872205491840E-08
 [a.u.] -> [K]                                              3.15774647902944E+05
 [a.u.] -> [kJ/mol]                                         2.62549961709828E+03
 [a.u.] -> [kcal/mol]                                       6.27509468713739E+02
 [a.u.] -> [Pa]                                             2.94210107994716E+13
 [a.u.] -> [bar]                                            2.94210107994716E+08
 [a.u.] -> [atm]                                            2.90362800883016E+08
 [a.u.] -> [eV]                                             2.72113838565563E+01
 [a.u.] -> [Hz]                                             6.57968392072181E+15
 [a.u.] -> [1/cm] (wave numbers)                            2.19474631370540E+05
 [a.u./Bohr**2] -> [1/cm]                                   5.14048714338585E+03
 

 CELL_TOP| Volume [angstrom^3]:                                       143.175000
 CELL_TOP| Vector a [angstrom     3.320     0.000     0.000   |a| =     3.320000
 CELL_TOP| Vector b [angstrom    -1.660     2.875     0.000   |b| =     3.319823
 CELL_TOP| Vector c [angstrom     0.000     0.000    15.000   |c| =    15.000000
 CELL_TOP| Angle (b,c), alpha [degree]:                                90.000000
 CELL_TOP| Angle (a,c), beta  [degree]:                                90.000000
 CELL_TOP| Angle (a,b), gamma [degree]:                               120.001763
 CELL_TOP| Numerically orthorhombic:                                          NO
 CELL_TOP| Periodicity                                                        XY

 GENERATE|  Preliminary Number of Bonds generated:                             0
 GENERATE|  Achieved consistency in connectivity generation.

 CELL| Volume [angstrom^3]:                                           143.175000
 CELL| Vector a [angstrom]:       3.320     0.000     0.000   |a| =     3.320000
 CELL| Vector b [angstrom]:      -1.660     2.875     0.000   |b| =     3.319823
 CELL| Vector c [angstrom]:       0.000     0.000    15.000   |c| =    15.000000
 CELL| Angle (b,c), alpha [degree]:                                    90.000000
 CELL| Angle (a,c), beta  [degree]:                                    90.000000
 CELL| Angle (a,b), gamma [degree]:                                   120.001763
 CELL| Numerically orthorhombic:                                              NO
 CELL| Periodicity                                                            XY

 CELL_REF| Volume [angstrom^3]:                                       143.175000
 CELL_REF| Vector a [angstrom     3.320     0.000     0.000   |a| =     3.320000
 CELL_REF| Vector b [angstrom    -1.660     2.875     0.000   |b| =     3.319823
 CELL_REF| Vector c [angstrom     0.000     0.000    15.000   |c| =    15.000000
 CELL_REF| Angle (b,c), alpha [degree]:                                90.000000
 CELL_REF| Angle (a,c), beta  [degree]:                                90.000000
 CELL_REF| Angle (a,b), gamma [degree]:                               120.001763
 CELL_REF| Numerically orthorhombic:                                          NO
 CELL_REF| Periodicity                                                        XY

 *** WARNING in cryssym.F:180 :: Symmetry library SPGLIB not available ***


 *******************************************************************************
                                    Kpoints
 *******************************************************************************
 BRILLOUIN| K-point scheme                                        Monkhorst-Pack
 BRILLOUIN| K-Point grid                                            32   32    1
 BRILLOUIN| Accuracy in Symmetry determination                      0.100000E-05
 BRILLOUIN| K-Point point group symmetrization                               OFF
 BRILLOUIN| Wavefunction type                                            COMPLEX
 BRILLOUIN| List of Kpoints [2 Pi/Bohr]                                      512
 BRILLOUIN| Number           Weight            X              Y              Z
 BRILLOUIN|     1           0.00195       -0.48438       -0.48438        0.00000
 BRILLOUIN|     2           0.00195       -0.48438       -0.45312        0.00000
 BRILLOUIN|     3           0.00195       -0.48438       -0.42188        0.00000
 BRILLOUIN|     4           0.00195       -0.48438       -0.39062        0.00000
 BRILLOUIN|     5           0.00195       -0.48438       -0.35938        0.00000
 BRILLOUIN|     6           0.00195       -0.48438       -0.32812        0.00000
 BRILLOUIN|     7           0.00195       -0.48438       -0.29688        0.00000
 BRILLOUIN|     8           0.00195       -0.48438       -0.26562        0.00000
 BRILLOUIN|     9           0.00195       -0.48438       -0.23438        0.00000
 BRILLOUIN|    10           0.00195       -0.48438       -0.20312        0.00000
 BRILLOUIN|    11           0.00195       -0.48438       -0.17188        0.00000
 BRILLOUIN|    12           0.00195       -0.48438       -0.14062        0.00000
 BRILLOUIN|    13           0.00195       -0.48438       -0.10938        0.00000
 BRILLOUIN|    14           0.00195       -0.48438       -0.07812        0.00000
 BRILLOUIN|    15           0.00195       -0.48438       -0.04688        0.00000
 BRILLOUIN|    16           0.00195       -0.48438       -0.01562        0.00000
 BRILLOUIN|    17           0.00195       -0.48438        0.01562        0.00000
 BRILLOUIN|    18           0.00195       -0.48438        0.04688        0.00000
 BRILLOUIN|    19           0.00195       -0.48438        0.07812        0.00000
 BRILLOUIN|    20           0.00195       -0.48438        0.10938        0.00000
 BRILLOUIN|    21           0.00195       -0.48438        0.14062        0.00000
 BRILLOUIN|    22           0.00195       -0.48438        0.17188        0.00000
 BRILLOUIN|    23           0.00195       -0.48438        0.20312        0.00000
 BRILLOUIN|    24           0.00195       -0.48438        0.23438        0.00000
 BRILLOUIN|    25           0.00195       -0.48438        0.26562        0.00000
 BRILLOUIN|    26           0.00195       -0.48438        0.29688        0.00000
 BRILLOUIN|    27           0.00195       -0.48438        0.32812        0.00000
 BRILLOUIN|    28           0.00195       -0.48438        0.35938        0.00000
 BRILLOUIN|    29           0.00195       -0.48438        0.39062        0.00000
 BRILLOUIN|    30           0.00195       -0.48438        0.42188        0.00000
 BRILLOUIN|    31           0.00195       -0.48438        0.45312        0.00000
 BRILLOUIN|    32           0.00195       -0.48438        0.48438        0.00000
 BRILLOUIN|    33           0.00195       -0.45312       -0.48438        0.00000
 BRILLOUIN|    34           0.00195       -0.45312       -0.45312        0.00000
 BRILLOUIN|    35           0.00195       -0.45312       -0.42188        0.00000
 BRILLOUIN|    36           0.00195       -0.45312       -0.39062        0.00000
 BRILLOUIN|    37           0.00195       -0.45312       -0.35938        0.00000
 BRILLOUIN|    38           0.00195       -0.45312       -0.32812        0.00000
 BRILLOUIN|    39           0.00195       -0.45312       -0.29688        0.00000
 BRILLOUIN|    40           0.00195       -0.45312       -0.26562        0.00000
 BRILLOUIN|    41           0.00195       -0.45312       -0.23438        0.00000
 BRILLOUIN|    42           0.00195       -0.45312       -0.20312        0.00000
 BRILLOUIN|    43           0.00195       -0.45312       -0.17188        0.00000
 BRILLOUIN|    44           0.00195       -0.45312       -0.14062        0.00000
 BRILLOUIN|    45           0.00195       -0.45312       -0.10938        0.00000
 BRILLOUIN|    46           0.00195       -0.45312       -0.07812        0.00000
 BRILLOUIN|    47           0.00195       -0.45312       -0.04688        0.00000
 BRILLOUIN|    48           0.00195       -0.45312       -0.01562        0.00000
 BRILLOUIN|    49           0.00195       -0.45312        0.01562        0.00000
 BRILLOUIN|    50           0.00195       -0.45312        0.04688        0.00000
 BRILLOUIN|    51           0.00195       -0.45312        0.07812        0.00000
 BRILLOUIN|    52           0.00195       -0.45312        0.10938        0.00000
 BRILLOUIN|    53           0.00195       -0.45312        0.14062        0.00000
 BRILLOUIN|    54           0.00195       -0.45312        0.17188        0.00000
 BRILLOUIN|    55           0.00195       -0.45312        0.20312        0.00000
 BRILLOUIN|    56           0.00195       -0.45312        0.23438        0.00000
 BRILLOUIN|    57           0.00195       -0.45312        0.26562        0.00000
 BRILLOUIN|    58           0.00195       -0.45312        0.29688        0.00000
 BRILLOUIN|    59           0.00195       -0.45312        0.32812        0.00000
 BRILLOUIN|    60           0.00195       -0.45312        0.35938        0.00000
 BRILLOUIN|    61           0.00195       -0.45312        0.39062        0.00000
 BRILLOUIN|    62           0.00195       -0.45312        0.42188        0.00000
 BRILLOUIN|    63           0.00195       -0.45312        0.45312        0.00000
 BRILLOUIN|    64           0.00195       -0.45312        0.48438        0.00000
 BRILLOUIN|    65           0.00195       -0.42188       -0.48438        0.00000
 BRILLOUIN|    66           0.00195       -0.42188       -0.45312        0.00000
 BRILLOUIN|    67           0.00195       -0.42188       -0.42188        0.00000
 BRILLOUIN|    68           0.00195       -0.42188       -0.39062        0.00000
 BRILLOUIN|    69           0.00195       -0.42188       -0.35938        0.00000
 BRILLOUIN|    70           0.00195       -0.42188       -0.32812        0.00000
 BRILLOUIN|    71           0.00195       -0.42188       -0.29688        0.00000
 BRILLOUIN|    72           0.00195       -0.42188       -0.26562        0.00000
 BRILLOUIN|    73           0.00195       -0.42188       -0.23438        0.00000
 BRILLOUIN|    74           0.00195       -0.42188       -0.20312        0.00000
 BRILLOUIN|    75           0.00195       -0.42188       -0.17188        0.00000
 BRILLOUIN|    76           0.00195       -0.42188       -0.14062        0.00000
 BRILLOUIN|    77           0.00195       -0.42188       -0.10938        0.00000
 BRILLOUIN|    78           0.00195       -0.42188       -0.07812        0.00000
 BRILLOUIN|    79           0.00195       -0.42188       -0.04688        0.00000
 BRILLOUIN|    80           0.00195       -0.42188       -0.01562        0.00000
 BRILLOUIN|    81           0.00195       -0.42188        0.01562        0.00000
 BRILLOUIN|    82           0.00195       -0.42188        0.04688        0.00000
 BRILLOUIN|    83           0.00195       -0.42188        0.07812        0.00000
 BRILLOUIN|    84           0.00195       -0.42188        0.10938        0.00000
 BRILLOUIN|    85           0.00195       -0.42188        0.14062        0.00000
 BRILLOUIN|    86           0.00195       -0.42188        0.17188        0.00000
 BRILLOUIN|    87           0.00195       -0.42188        0.20312        0.00000
 BRILLOUIN|    88           0.00195       -0.42188        0.23438        0.00000
 BRILLOUIN|    89           0.00195       -0.42188        0.26562        0.00000
 BRILLOUIN|    90           0.00195       -0.42188        0.29688        0.00000
 BRILLOUIN|    91           0.00195       -0.42188        0.32812        0.00000
 BRILLOUIN|    92           0.00195       -0.42188        0.35938        0.00000
 BRILLOUIN|    93           0.00195       -0.42188        0.39062        0.00000
 BRILLOUIN|    94           0.00195       -0.42188        0.42188        0.00000
 BRILLOUIN|    95           0.00195       -0.42188        0.45312        0.00000
 BRILLOUIN|    96           0.00195       -0.42188        0.48438        0.00000
 BRILLOUIN|    97           0.00195       -0.39062       -0.48438        0.00000
 BRILLOUIN|    98           0.00195       -0.39062       -0.45312        0.00000
 BRILLOUIN|    99           0.00195       -0.39062       -0.42188        0.00000
 BRILLOUIN|   100           0.00195       -0.39062       -0.39062        0.00000
 BRILLOUIN|   101           0.00195       -0.39062       -0.35938        0.00000
 BRILLOUIN|   102           0.00195       -0.39062       -0.32812        0.00000
 BRILLOUIN|   103           0.00195       -0.39062       -0.29688        0.00000
 BRILLOUIN|   104           0.00195       -0.39062       -0.26562        0.00000
 BRILLOUIN|   105           0.00195       -0.39062       -0.23438        0.00000
 BRILLOUIN|   106           0.00195       -0.39062       -0.20312        0.00000
 BRILLOUIN|   107           0.00195       -0.39062       -0.17188        0.00000
 BRILLOUIN|   108           0.00195       -0.39062       -0.14062        0.00000
 BRILLOUIN|   109           0.00195       -0.39062       -0.10938        0.00000
 BRILLOUIN|   110           0.00195       -0.39062       -0.07812        0.00000
 BRILLOUIN|   111           0.00195       -0.39062       -0.04688        0.00000
 BRILLOUIN|   112           0.00195       -0.39062       -0.01562        0.00000
 BRILLOUIN|   113           0.00195       -0.39062        0.01562        0.00000
 BRILLOUIN|   114           0.00195       -0.39062        0.04688        0.00000
 BRILLOUIN|   115           0.00195       -0.39062        0.07812        0.00000
 BRILLOUIN|   116           0.00195       -0.39062        0.10938        0.00000
 BRILLOUIN|   117           0.00195       -0.39062        0.14062        0.00000
 BRILLOUIN|   118           0.00195       -0.39062        0.17188        0.00000
 BRILLOUIN|   119           0.00195       -0.39062        0.20312        0.00000
 BRILLOUIN|   120           0.00195       -0.39062        0.23438        0.00000
 BRILLOUIN|   121           0.00195       -0.39062        0.26562        0.00000
 BRILLOUIN|   122           0.00195       -0.39062        0.29688        0.00000
 BRILLOUIN|   123           0.00195       -0.39062        0.32812        0.00000
 BRILLOUIN|   124           0.00195       -0.39062        0.35938        0.00000
 BRILLOUIN|   125           0.00195       -0.39062        0.39062        0.00000
 BRILLOUIN|   126           0.00195       -0.39062        0.42188        0.00000
 BRILLOUIN|   127           0.00195       -0.39062        0.45312        0.00000
 BRILLOUIN|   128           0.00195       -0.39062        0.48438        0.00000
 BRILLOUIN|   129           0.00195       -0.35938       -0.48438        0.00000
 BRILLOUIN|   130           0.00195       -0.35938       -0.45312        0.00000
 BRILLOUIN|   131           0.00195       -0.35938       -0.42188        0.00000
 BRILLOUIN|   132           0.00195       -0.35938       -0.39062        0.00000
 BRILLOUIN|   133           0.00195       -0.35938       -0.35938        0.00000
 BRILLOUIN|   134           0.00195       -0.35938       -0.32812        0.00000
 BRILLOUIN|   135           0.00195       -0.35938       -0.29688        0.00000
 BRILLOUIN|   136           0.00195       -0.35938       -0.26562        0.00000
 BRILLOUIN|   137           0.00195       -0.35938       -0.23438        0.00000
 BRILLOUIN|   138           0.00195       -0.35938       -0.20312        0.00000
 BRILLOUIN|   139           0.00195       -0.35938       -0.17188        0.00000
 BRILLOUIN|   140           0.00195       -0.35938       -0.14062        0.00000
 BRILLOUIN|   141           0.00195       -0.35938       -0.10938        0.00000
 BRILLOUIN|   142           0.00195       -0.35938       -0.07812        0.00000
 BRILLOUIN|   143           0.00195       -0.35938       -0.04688        0.00000
 BRILLOUIN|   144           0.00195       -0.35938       -0.01562        0.00000
 BRILLOUIN|   145           0.00195       -0.35938        0.01562        0.00000
 BRILLOUIN|   146           0.00195       -0.35938        0.04688        0.00000
 BRILLOUIN|   147           0.00195       -0.35938        0.07812        0.00000
 BRILLOUIN|   148           0.00195       -0.35938        0.10938        0.00000
 BRILLOUIN|   149           0.00195       -0.35938        0.14062        0.00000
 BRILLOUIN|   150           0.00195       -0.35938        0.17188        0.00000
 BRILLOUIN|   151           0.00195       -0.35938        0.20312        0.00000
 BRILLOUIN|   152           0.00195       -0.35938        0.23438        0.00000
 BRILLOUIN|   153           0.00195       -0.35938        0.26562        0.00000
 BRILLOUIN|   154           0.00195       -0.35938        0.29688        0.00000
 BRILLOUIN|   155           0.00195       -0.35938        0.32812        0.00000
 BRILLOUIN|   156           0.00195       -0.35938        0.35938        0.00000
 BRILLOUIN|   157           0.00195       -0.35938        0.39062        0.00000
 BRILLOUIN|   158           0.00195       -0.35938        0.42188        0.00000
 BRILLOUIN|   159           0.00195       -0.35938        0.45312        0.00000
 BRILLOUIN|   160           0.00195       -0.35938        0.48438        0.00000
 BRILLOUIN|   161           0.00195       -0.32812       -0.48438        0.00000
 BRILLOUIN|   162           0.00195       -0.32812       -0.45312        0.00000
 BRILLOUIN|   163           0.00195       -0.32812       -0.42188        0.00000
 BRILLOUIN|   164           0.00195       -0.32812       -0.39062        0.00000
 BRILLOUIN|   165           0.00195       -0.32812       -0.35938        0.00000
 BRILLOUIN|   166           0.00195       -0.32812       -0.32812        0.00000
 BRILLOUIN|   167           0.00195       -0.32812       -0.29688        0.00000
 BRILLOUIN|   168           0.00195       -0.32812       -0.26562        0.00000
 BRILLOUIN|   169           0.00195       -0.32812       -0.23438        0.00000
 BRILLOUIN|   170           0.00195       -0.32812       -0.20312        0.00000
 BRILLOUIN|   171           0.00195       -0.32812       -0.17188        0.00000
 BRILLOUIN|   172           0.00195       -0.32812       -0.14062        0.00000
 BRILLOUIN|   173           0.00195       -0.32812       -0.10938        0.00000
 BRILLOUIN|   174           0.00195       -0.32812       -0.07812        0.00000
 BRILLOUIN|   175           0.00195       -0.32812       -0.04688        0.00000
 BRILLOUIN|   176           0.00195       -0.32812       -0.01562        0.00000
 BRILLOUIN|   177           0.00195       -0.32812        0.01562        0.00000
 BRILLOUIN|   178           0.00195       -0.32812        0.04688        0.00000
 BRILLOUIN|   179           0.00195       -0.32812        0.07812        0.00000
 BRILLOUIN|   180           0.00195       -0.32812        0.10938        0.00000
 BRILLOUIN|   181           0.00195       -0.32812        0.14062        0.00000
 BRILLOUIN|   182           0.00195       -0.32812        0.17188        0.00000
 BRILLOUIN|   183           0.00195       -0.32812        0.20312        0.00000
 BRILLOUIN|   184           0.00195       -0.32812        0.23438        0.00000
 BRILLOUIN|   185           0.00195       -0.32812        0.26562        0.00000
 BRILLOUIN|   186           0.00195       -0.32812        0.29688        0.00000
 BRILLOUIN|   187           0.00195       -0.32812        0.32812        0.00000
 BRILLOUIN|   188           0.00195       -0.32812        0.35938        0.00000
 BRILLOUIN|   189           0.00195       -0.32812        0.39062        0.00000
 BRILLOUIN|   190           0.00195       -0.32812        0.42188        0.00000
 BRILLOUIN|   191           0.00195       -0.32812        0.45312        0.00000
 BRILLOUIN|   192           0.00195       -0.32812        0.48438        0.00000
 BRILLOUIN|   193           0.00195       -0.29688       -0.48438        0.00000
 BRILLOUIN|   194           0.00195       -0.29688       -0.45312        0.00000
 BRILLOUIN|   195           0.00195       -0.29688       -0.42188        0.00000
 BRILLOUIN|   196           0.00195       -0.29688       -0.39062        0.00000
 BRILLOUIN|   197           0.00195       -0.29688       -0.35938        0.00000
 BRILLOUIN|   198           0.00195       -0.29688       -0.32812        0.00000
 BRILLOUIN|   199           0.00195       -0.29688       -0.29688        0.00000
 BRILLOUIN|   200           0.00195       -0.29688       -0.26562        0.00000
 BRILLOUIN|   201           0.00195       -0.29688       -0.23438        0.00000
 BRILLOUIN|   202           0.00195       -0.29688       -0.20312        0.00000
 BRILLOUIN|   203           0.00195       -0.29688       -0.17188        0.00000
 BRILLOUIN|   204           0.00195       -0.29688       -0.14062        0.00000
 BRILLOUIN|   205           0.00195       -0.29688       -0.10938        0.00000
 BRILLOUIN|   206           0.00195       -0.29688       -0.07812        0.00000
 BRILLOUIN|   207           0.00195       -0.29688       -0.04688        0.00000
 BRILLOUIN|   208           0.00195       -0.29688       -0.01562        0.00000
 BRILLOUIN|   209           0.00195       -0.29688        0.01562        0.00000
 BRILLOUIN|   210           0.00195       -0.29688        0.04688        0.00000
 BRILLOUIN|   211           0.00195       -0.29688        0.07812        0.00000
 BRILLOUIN|   212           0.00195       -0.29688        0.10938        0.00000
 BRILLOUIN|   213           0.00195       -0.29688        0.14062        0.00000
 BRILLOUIN|   214           0.00195       -0.29688        0.17188        0.00000
 BRILLOUIN|   215           0.00195       -0.29688        0.20312        0.00000
 BRILLOUIN|   216           0.00195       -0.29688        0.23438        0.00000
 BRILLOUIN|   217           0.00195       -0.29688        0.26562        0.00000
 BRILLOUIN|   218           0.00195       -0.29688        0.29688        0.00000
 BRILLOUIN|   219           0.00195       -0.29688        0.32812        0.00000
 BRILLOUIN|   220           0.00195       -0.29688        0.35938        0.00000
 BRILLOUIN|   221           0.00195       -0.29688        0.39062        0.00000
 BRILLOUIN|   222           0.00195       -0.29688        0.42188        0.00000
 BRILLOUIN|   223           0.00195       -0.29688        0.45312        0.00000
 BRILLOUIN|   224           0.00195       -0.29688        0.48438        0.00000
 BRILLOUIN|   225           0.00195       -0.26562       -0.48438        0.00000
 BRILLOUIN|   226           0.00195       -0.26562       -0.45312        0.00000
 BRILLOUIN|   227           0.00195       -0.26562       -0.42188        0.00000
 BRILLOUIN|   228           0.00195       -0.26562       -0.39062        0.00000
 BRILLOUIN|   229           0.00195       -0.26562       -0.35938        0.00000
 BRILLOUIN|   230           0.00195       -0.26562       -0.32812        0.00000
 BRILLOUIN|   231           0.00195       -0.26562       -0.29688        0.00000
 BRILLOUIN|   232           0.00195       -0.26562       -0.26562        0.00000
 BRILLOUIN|   233           0.00195       -0.26562       -0.23438        0.00000
 BRILLOUIN|   234           0.00195       -0.26562       -0.20312        0.00000
 BRILLOUIN|   235           0.00195       -0.26562       -0.17188        0.00000
 BRILLOUIN|   236           0.00195       -0.26562       -0.14062        0.00000
 BRILLOUIN|   237           0.00195       -0.26562       -0.10938        0.00000
 BRILLOUIN|   238           0.00195       -0.26562       -0.07812        0.00000
 BRILLOUIN|   239           0.00195       -0.26562       -0.04688        0.00000
 BRILLOUIN|   240           0.00195       -0.26562       -0.01562        0.00000
 BRILLOUIN|   241           0.00195       -0.26562        0.01562        0.00000
 BRILLOUIN|   242           0.00195       -0.26562        0.04688        0.00000
 BRILLOUIN|   243           0.00195       -0.26562        0.07812        0.00000
 BRILLOUIN|   244           0.00195       -0.26562        0.10938        0.00000
 BRILLOUIN|   245           0.00195       -0.26562        0.14062        0.00000
 BRILLOUIN|   246           0.00195       -0.26562        0.17188        0.00000
 BRILLOUIN|   247           0.00195       -0.26562        0.20312        0.00000
 BRILLOUIN|   248           0.00195       -0.26562        0.23438        0.00000
 BRILLOUIN|   249           0.00195       -0.26562        0.26562        0.00000
 BRILLOUIN|   250           0.00195       -0.26562        0.29688        0.00000
 BRILLOUIN|   251           0.00195       -0.26562        0.32812        0.00000
 BRILLOUIN|   252           0.00195       -0.26562        0.35938        0.00000
 BRILLOUIN|   253           0.00195       -0.26562        0.39062        0.00000
 BRILLOUIN|   254           0.00195       -0.26562        0.42188        0.00000
 BRILLOUIN|   255           0.00195       -0.26562        0.45312        0.00000
 BRILLOUIN|   256           0.00195       -0.26562        0.48438        0.00000
 BRILLOUIN|   257           0.00195       -0.23438       -0.48438        0.00000
 BRILLOUIN|   258           0.00195       -0.23438       -0.45312        0.00000
 BRILLOUIN|   259           0.00195       -0.23438       -0.42188        0.00000
 BRILLOUIN|   260           0.00195       -0.23438       -0.39062        0.00000
 BRILLOUIN|   261           0.00195       -0.23438       -0.35938        0.00000
 BRILLOUIN|   262           0.00195       -0.23438       -0.32812        0.00000
 BRILLOUIN|   263           0.00195       -0.23438       -0.29688        0.00000
 BRILLOUIN|   264           0.00195       -0.23438       -0.26562        0.00000
 BRILLOUIN|   265           0.00195       -0.23438       -0.23438        0.00000
 BRILLOUIN|   266           0.00195       -0.23438       -0.20312        0.00000
 BRILLOUIN|   267           0.00195       -0.23438       -0.17188        0.00000
 BRILLOUIN|   268           0.00195       -0.23438       -0.14062        0.00000
 BRILLOUIN|   269           0.00195       -0.23438       -0.10938        0.00000
 BRILLOUIN|   270           0.00195       -0.23438       -0.07812        0.00000
 BRILLOUIN|   271           0.00195       -0.23438       -0.04688        0.00000
 BRILLOUIN|   272           0.00195       -0.23438       -0.01562        0.00000
 BRILLOUIN|   273           0.00195       -0.23438        0.01562        0.00000
 BRILLOUIN|   274           0.00195       -0.23438        0.04688        0.00000
 BRILLOUIN|   275           0.00195       -0.23438        0.07812        0.00000
 BRILLOUIN|   276           0.00195       -0.23438        0.10938        0.00000
 BRILLOUIN|   277           0.00195       -0.23438        0.14062        0.00000
 BRILLOUIN|   278           0.00195       -0.23438        0.17188        0.00000
 BRILLOUIN|   279           0.00195       -0.23438        0.20312        0.00000
 BRILLOUIN|   280           0.00195       -0.23438        0.23438        0.00000
 BRILLOUIN|   281           0.00195       -0.23438        0.26562        0.00000
 BRILLOUIN|   282           0.00195       -0.23438        0.29688        0.00000
 BRILLOUIN|   283           0.00195       -0.23438        0.32812        0.00000
 BRILLOUIN|   284           0.00195       -0.23438        0.35938        0.00000
 BRILLOUIN|   285           0.00195       -0.23438        0.39062        0.00000
 BRILLOUIN|   286           0.00195       -0.23438        0.42188        0.00000
 BRILLOUIN|   287           0.00195       -0.23438        0.45312        0.00000
 BRILLOUIN|   288           0.00195       -0.23438        0.48438        0.00000
 BRILLOUIN|   289           0.00195       -0.20312       -0.48438        0.00000
 BRILLOUIN|   290           0.00195       -0.20312       -0.45312        0.00000
 BRILLOUIN|   291           0.00195       -0.20312       -0.42188        0.00000
 BRILLOUIN|   292           0.00195       -0.20312       -0.39062        0.00000
 BRILLOUIN|   293           0.00195       -0.20312       -0.35938        0.00000
 BRILLOUIN|   294           0.00195       -0.20312       -0.32812        0.00000
 BRILLOUIN|   295           0.00195       -0.20312       -0.29688        0.00000
 BRILLOUIN|   296           0.00195       -0.20312       -0.26562        0.00000
 BRILLOUIN|   297           0.00195       -0.20312       -0.23438        0.00000
 BRILLOUIN|   298           0.00195       -0.20312       -0.20312        0.00000
 BRILLOUIN|   299           0.00195       -0.20312       -0.17188        0.00000
 BRILLOUIN|   300           0.00195       -0.20312       -0.14062        0.00000
 BRILLOUIN|   301           0.00195       -0.20312       -0.10938        0.00000
 BRILLOUIN|   302           0.00195       -0.20312       -0.07812        0.00000
 BRILLOUIN|   303           0.00195       -0.20312       -0.04688        0.00000
 BRILLOUIN|   304           0.00195       -0.20312       -0.01562        0.00000
 BRILLOUIN|   305           0.00195       -0.20312        0.01562        0.00000
 BRILLOUIN|   306           0.00195       -0.20312        0.04688        0.00000
 BRILLOUIN|   307           0.00195       -0.20312        0.07812        0.00000
 BRILLOUIN|   308           0.00195       -0.20312        0.10938        0.00000
 BRILLOUIN|   309           0.00195       -0.20312        0.14062        0.00000
 BRILLOUIN|   310           0.00195       -0.20312        0.17188        0.00000
 BRILLOUIN|   311           0.00195       -0.20312        0.20312        0.00000
 BRILLOUIN|   312           0.00195       -0.20312        0.23438        0.00000
 BRILLOUIN|   313           0.00195       -0.20312        0.26562        0.00000
 BRILLOUIN|   314           0.00195       -0.20312        0.29688        0.00000
 BRILLOUIN|   315           0.00195       -0.20312        0.32812        0.00000
 BRILLOUIN|   316           0.00195       -0.20312        0.35938        0.00000
 BRILLOUIN|   317           0.00195       -0.20312        0.39062        0.00000
 BRILLOUIN|   318           0.00195       -0.20312        0.42188        0.00000
 BRILLOUIN|   319           0.00195       -0.20312        0.45312        0.00000
 BRILLOUIN|   320           0.00195       -0.20312        0.48438        0.00000
 BRILLOUIN|   321           0.00195       -0.17188       -0.48438        0.00000
 BRILLOUIN|   322           0.00195       -0.17188       -0.45312        0.00000
 BRILLOUIN|   323           0.00195       -0.17188       -0.42188        0.00000
 BRILLOUIN|   324           0.00195       -0.17188       -0.39062        0.00000
 BRILLOUIN|   325           0.00195       -0.17188       -0.35938        0.00000
 BRILLOUIN|   326           0.00195       -0.17188       -0.32812        0.00000
 BRILLOUIN|   327           0.00195       -0.17188       -0.29688        0.00000
 BRILLOUIN|   328           0.00195       -0.17188       -0.26562        0.00000
 BRILLOUIN|   329           0.00195       -0.17188       -0.23438        0.00000
 BRILLOUIN|   330           0.00195       -0.17188       -0.20312        0.00000
 BRILLOUIN|   331           0.00195       -0.17188       -0.17188        0.00000
 BRILLOUIN|   332           0.00195       -0.17188       -0.14062        0.00000
 BRILLOUIN|   333           0.00195       -0.17188       -0.10938        0.00000
 BRILLOUIN|   334           0.00195       -0.17188       -0.07812        0.00000
 BRILLOUIN|   335           0.00195       -0.17188       -0.04688        0.00000
 BRILLOUIN|   336           0.00195       -0.17188       -0.01562        0.00000
 BRILLOUIN|   337           0.00195       -0.17188        0.01562        0.00000
 BRILLOUIN|   338           0.00195       -0.17188        0.04688        0.00000
 BRILLOUIN|   339           0.00195       -0.17188        0.07812        0.00000
 BRILLOUIN|   340           0.00195       -0.17188        0.10938        0.00000
 BRILLOUIN|   341           0.00195       -0.17188        0.14062        0.00000
 BRILLOUIN|   342           0.00195       -0.17188        0.17188        0.00000
 BRILLOUIN|   343           0.00195       -0.17188        0.20312        0.00000
 BRILLOUIN|   344           0.00195       -0.17188        0.23438        0.00000
 BRILLOUIN|   345           0.00195       -0.17188        0.26562        0.00000
 BRILLOUIN|   346           0.00195       -0.17188        0.29688        0.00000
 BRILLOUIN|   347           0.00195       -0.17188        0.32812        0.00000
 BRILLOUIN|   348           0.00195       -0.17188        0.35938        0.00000
 BRILLOUIN|   349           0.00195       -0.17188        0.39062        0.00000
 BRILLOUIN|   350           0.00195       -0.17188        0.42188        0.00000
 BRILLOUIN|   351           0.00195       -0.17188        0.45312        0.00000
 BRILLOUIN|   352           0.00195       -0.17188        0.48438        0.00000
 BRILLOUIN|   353           0.00195       -0.14062       -0.48438        0.00000
 BRILLOUIN|   354           0.00195       -0.14062       -0.45312        0.00000
 BRILLOUIN|   355           0.00195       -0.14062       -0.42188        0.00000
 BRILLOUIN|   356           0.00195       -0.14062       -0.39062        0.00000
 BRILLOUIN|   357           0.00195       -0.14062       -0.35938        0.00000
 BRILLOUIN|   358           0.00195       -0.14062       -0.32812        0.00000
 BRILLOUIN|   359           0.00195       -0.14062       -0.29688        0.00000
 BRILLOUIN|   360           0.00195       -0.14062       -0.26562        0.00000
 BRILLOUIN|   361           0.00195       -0.14062       -0.23438        0.00000
 BRILLOUIN|   362           0.00195       -0.14062       -0.20312        0.00000
 BRILLOUIN|   363           0.00195       -0.14062       -0.17188        0.00000
 BRILLOUIN|   364           0.00195       -0.14062       -0.14062        0.00000
 BRILLOUIN|   365           0.00195       -0.14062       -0.10938        0.00000
 BRILLOUIN|   366           0.00195       -0.14062       -0.07812        0.00000
 BRILLOUIN|   367           0.00195       -0.14062       -0.04688        0.00000
 BRILLOUIN|   368           0.00195       -0.14062       -0.01562        0.00000
 BRILLOUIN|   369           0.00195       -0.14062        0.01562        0.00000
 BRILLOUIN|   370           0.00195       -0.14062        0.04688        0.00000
 BRILLOUIN|   371           0.00195       -0.14062        0.07812        0.00000
 BRILLOUIN|   372           0.00195       -0.14062        0.10938        0.00000
 BRILLOUIN|   373           0.00195       -0.14062        0.14062        0.00000
 BRILLOUIN|   374           0.00195       -0.14062        0.17188        0.00000
 BRILLOUIN|   375           0.00195       -0.14062        0.20312        0.00000
 BRILLOUIN|   376           0.00195       -0.14062        0.23438        0.00000
 BRILLOUIN|   377           0.00195       -0.14062        0.26562        0.00000
 BRILLOUIN|   378           0.00195       -0.14062        0.29688        0.00000
 BRILLOUIN|   379           0.00195       -0.14062        0.32812        0.00000
 BRILLOUIN|   380           0.00195       -0.14062        0.35938        0.00000
 BRILLOUIN|   381           0.00195       -0.14062        0.39062        0.00000
 BRILLOUIN|   382           0.00195       -0.14062        0.42188        0.00000
 BRILLOUIN|   383           0.00195       -0.14062        0.45312        0.00000
 BRILLOUIN|   384           0.00195       -0.14062        0.48438        0.00000
 BRILLOUIN|   385           0.00195       -0.10938       -0.48438        0.00000
 BRILLOUIN|   386           0.00195       -0.10938       -0.45312        0.00000
 BRILLOUIN|   387           0.00195       -0.10938       -0.42188        0.00000
 BRILLOUIN|   388           0.00195       -0.10938       -0.39062        0.00000
 BRILLOUIN|   389           0.00195       -0.10938       -0.35938        0.00000
 BRILLOUIN|   390           0.00195       -0.10938       -0.32812        0.00000
 BRILLOUIN|   391           0.00195       -0.10938       -0.29688        0.00000
 BRILLOUIN|   392           0.00195       -0.10938       -0.26562        0.00000
 BRILLOUIN|   393           0.00195       -0.10938       -0.23438        0.00000
 BRILLOUIN|   394           0.00195       -0.10938       -0.20312        0.00000
 BRILLOUIN|   395           0.00195       -0.10938       -0.17188        0.00000
 BRILLOUIN|   396           0.00195       -0.10938       -0.14062        0.00000
 BRILLOUIN|   397           0.00195       -0.10938       -0.10938        0.00000
 BRILLOUIN|   398           0.00195       -0.10938       -0.07812        0.00000
 BRILLOUIN|   399           0.00195       -0.10938       -0.04688        0.00000
 BRILLOUIN|   400           0.00195       -0.10938       -0.01562        0.00000
 BRILLOUIN|   401           0.00195       -0.10938        0.01562        0.00000
 BRILLOUIN|   402           0.00195       -0.10938        0.04688        0.00000
 BRILLOUIN|   403           0.00195       -0.10938        0.07812        0.00000
 BRILLOUIN|   404           0.00195       -0.10938        0.10938        0.00000
 BRILLOUIN|   405           0.00195       -0.10938        0.14062        0.00000
 BRILLOUIN|   406           0.00195       -0.10938        0.17188        0.00000
 BRILLOUIN|   407           0.00195       -0.10938        0.20312        0.00000
 BRILLOUIN|   408           0.00195       -0.10938        0.23438        0.00000
 BRILLOUIN|   409           0.00195       -0.10938        0.26562        0.00000
 BRILLOUIN|   410           0.00195       -0.10938        0.29688        0.00000
 BRILLOUIN|   411           0.00195       -0.10938        0.32812        0.00000
 BRILLOUIN|   412           0.00195       -0.10938        0.35938        0.00000
 BRILLOUIN|   413           0.00195       -0.10938        0.39062        0.00000
 BRILLOUIN|   414           0.00195       -0.10938        0.42188        0.00000
 BRILLOUIN|   415           0.00195       -0.10938        0.45312        0.00000
 BRILLOUIN|   416           0.00195       -0.10938        0.48438        0.00000
 BRILLOUIN|   417           0.00195       -0.07812       -0.48438        0.00000
 BRILLOUIN|   418           0.00195       -0.07812       -0.45312        0.00000
 BRILLOUIN|   419           0.00195       -0.07812       -0.42188        0.00000
 BRILLOUIN|   420           0.00195       -0.07812       -0.39062        0.00000
 BRILLOUIN|   421           0.00195       -0.07812       -0.35938        0.00000
 BRILLOUIN|   422           0.00195       -0.07812       -0.32812        0.00000
 BRILLOUIN|   423           0.00195       -0.07812       -0.29688        0.00000
 BRILLOUIN|   424           0.00195       -0.07812       -0.26562        0.00000
 BRILLOUIN|   425           0.00195       -0.07812       -0.23438        0.00000
 BRILLOUIN|   426           0.00195       -0.07812       -0.20312        0.00000
 BRILLOUIN|   427           0.00195       -0.07812       -0.17188        0.00000
 BRILLOUIN|   428           0.00195       -0.07812       -0.14062        0.00000
 BRILLOUIN|   429           0.00195       -0.07812       -0.10938        0.00000
 BRILLOUIN|   430           0.00195       -0.07812       -0.07812        0.00000
 BRILLOUIN|   431           0.00195       -0.07812       -0.04688        0.00000
 BRILLOUIN|   432           0.00195       -0.07812       -0.01562        0.00000
 BRILLOUIN|   433           0.00195       -0.07812        0.01562        0.00000
 BRILLOUIN|   434           0.00195       -0.07812        0.04688        0.00000
 BRILLOUIN|   435           0.00195       -0.07812        0.07812        0.00000
 BRILLOUIN|   436           0.00195       -0.07812        0.10938        0.00000
 BRILLOUIN|   437           0.00195       -0.07812        0.14062        0.00000
 BRILLOUIN|   438           0.00195       -0.07812        0.17188        0.00000
 BRILLOUIN|   439           0.00195       -0.07812        0.20312        0.00000
 BRILLOUIN|   440           0.00195       -0.07812        0.23438        0.00000
 BRILLOUIN|   441           0.00195       -0.07812        0.26562        0.00000
 BRILLOUIN|   442           0.00195       -0.07812        0.29688        0.00000
 BRILLOUIN|   443           0.00195       -0.07812        0.32812        0.00000
 BRILLOUIN|   444           0.00195       -0.07812        0.35938        0.00000
 BRILLOUIN|   445           0.00195       -0.07812        0.39062        0.00000
 BRILLOUIN|   446           0.00195       -0.07812        0.42188        0.00000
 BRILLOUIN|   447           0.00195       -0.07812        0.45312        0.00000
 BRILLOUIN|   448           0.00195       -0.07812        0.48438        0.00000
 BRILLOUIN|   449           0.00195       -0.04688       -0.48438        0.00000
 BRILLOUIN|   450           0.00195       -0.04688       -0.45312        0.00000
 BRILLOUIN|   451           0.00195       -0.04688       -0.42188        0.00000
 BRILLOUIN|   452           0.00195       -0.04688       -0.39062        0.00000
 BRILLOUIN|   453           0.00195       -0.04688       -0.35938        0.00000
 BRILLOUIN|   454           0.00195       -0.04688       -0.32812        0.00000
 BRILLOUIN|   455           0.00195       -0.04688       -0.29688        0.00000
 BRILLOUIN|   456           0.00195       -0.04688       -0.26562        0.00000
 BRILLOUIN|   457           0.00195       -0.04688       -0.23438        0.00000
 BRILLOUIN|   458           0.00195       -0.04688       -0.20312        0.00000
 BRILLOUIN|   459           0.00195       -0.04688       -0.17188        0.00000
 BRILLOUIN|   460           0.00195       -0.04688       -0.14062        0.00000
 BRILLOUIN|   461           0.00195       -0.04688       -0.10938        0.00000
 BRILLOUIN|   462           0.00195       -0.04688       -0.07812        0.00000
 BRILLOUIN|   463           0.00195       -0.04688       -0.04688        0.00000
 BRILLOUIN|   464           0.00195       -0.04688       -0.01562        0.00000
 BRILLOUIN|   465           0.00195       -0.04688        0.01562        0.00000
 BRILLOUIN|   466           0.00195       -0.04688        0.04688        0.00000
 BRILLOUIN|   467           0.00195       -0.04688        0.07812        0.00000
 BRILLOUIN|   468           0.00195       -0.04688        0.10938        0.00000
 BRILLOUIN|   469           0.00195       -0.04688        0.14062        0.00000
 BRILLOUIN|   470           0.00195       -0.04688        0.17188        0.00000
 BRILLOUIN|   471           0.00195       -0.04688        0.20312        0.00000
 BRILLOUIN|   472           0.00195       -0.04688        0.23438        0.00000
 BRILLOUIN|   473           0.00195       -0.04688        0.26562        0.00000
 BRILLOUIN|   474           0.00195       -0.04688        0.29688        0.00000
 BRILLOUIN|   475           0.00195       -0.04688        0.32812        0.00000
 BRILLOUIN|   476           0.00195       -0.04688        0.35938        0.00000
 BRILLOUIN|   477           0.00195       -0.04688        0.39062        0.00000
 BRILLOUIN|   478           0.00195       -0.04688        0.42188        0.00000
 BRILLOUIN|   479           0.00195       -0.04688        0.45312        0.00000
 BRILLOUIN|   480           0.00195       -0.04688        0.48438        0.00000
 BRILLOUIN|   481           0.00195       -0.01562       -0.48438        0.00000
 BRILLOUIN|   482           0.00195       -0.01562       -0.45312        0.00000
 BRILLOUIN|   483           0.00195       -0.01562       -0.42188        0.00000
 BRILLOUIN|   484           0.00195       -0.01562       -0.39062        0.00000
 BRILLOUIN|   485           0.00195       -0.01562       -0.35938        0.00000
 BRILLOUIN|   486           0.00195       -0.01562       -0.32812        0.00000
 BRILLOUIN|   487           0.00195       -0.01562       -0.29688        0.00000
 BRILLOUIN|   488           0.00195       -0.01562       -0.26562        0.00000
 BRILLOUIN|   489           0.00195       -0.01562       -0.23438        0.00000
 BRILLOUIN|   490           0.00195       -0.01562       -0.20312        0.00000
 BRILLOUIN|   491           0.00195       -0.01562       -0.17188        0.00000
 BRILLOUIN|   492           0.00195       -0.01562       -0.14062        0.00000
 BRILLOUIN|   493           0.00195       -0.01562       -0.10938        0.00000
 BRILLOUIN|   494           0.00195       -0.01562       -0.07812        0.00000
 BRILLOUIN|   495           0.00195       -0.01562       -0.04688        0.00000
 BRILLOUIN|   496           0.00195       -0.01562       -0.01562        0.00000
 BRILLOUIN|   497           0.00195       -0.01562        0.01562        0.00000
 BRILLOUIN|   498           0.00195       -0.01562        0.04688        0.00000
 BRILLOUIN|   499           0.00195       -0.01562        0.07812        0.00000
 BRILLOUIN|   500           0.00195       -0.01562        0.10938        0.00000
 BRILLOUIN|   501           0.00195       -0.01562        0.14062        0.00000
 BRILLOUIN|   502           0.00195       -0.01562        0.17188        0.00000
 BRILLOUIN|   503           0.00195       -0.01562        0.20312        0.00000
 BRILLOUIN|   504           0.00195       -0.01562        0.23438        0.00000
 BRILLOUIN|   505           0.00195       -0.01562        0.26562        0.00000
 BRILLOUIN|   506           0.00195       -0.01562        0.29688        0.00000
 BRILLOUIN|   507           0.00195       -0.01562        0.32812        0.00000
 BRILLOUIN|   508           0.00195       -0.01562        0.35938        0.00000
 BRILLOUIN|   509           0.00195       -0.01562        0.39062        0.00000
 BRILLOUIN|   510           0.00195       -0.01562        0.42188        0.00000
 BRILLOUIN|   511           0.00195       -0.01562        0.45312        0.00000
 BRILLOUIN|   512           0.00195       -0.01562        0.48438        0.00000
 *******************************************************************************

 *******************************************************************************
 *******************************************************************************
 **                                                                           **
 **     #####                         ##              ##                      **
 **    ##   ##            ##          ##              ##                      **
 **   ##     ##                       ##            ######                    **
 **   ##     ##  ##   ##  ##   #####  ##  ##   ####   ##    #####    #####    **
 **   ##     ##  ##   ##  ##  ##      ## ##   ##      ##   ##   ##  ##   ##   **
 **   ##  ## ##  ##   ##  ##  ##      ####     ###    ##   ######   ######    **
 **    ##  ###   ##   ##  ##  ##      ## ##      ##   ##   ##       ##        **
 **     #######   #####   ##   #####  ##  ##  ####    ##    #####   ##        **
 **           ##                                                    ##        **
 **                                                                           **
 **                                                ... make the atoms dance   **
 **                                                                           **
 **            Copyright (C) by CP2K developers group (2000-2025)             **
 **                      J. Chem. Phys. 152, 194103 (2020)                    **
 **                                                                           **
 *******************************************************************************

 DFT| Spin restricted Kohn-Sham (RKS) calculation                            RKS
 DFT| Multiplicity                                                             1
 DFT| Number of spin states                                                    1
 DFT| Charge                                                                   0
 DFT| Self-interaction correction (SIC)                                       NO
 DFT| Cutoffs: density                                              1.000000E-10
 DFT|          gradient                                             1.000000E-10
 DFT|          tau                                                  1.000000E-10
 DFT|          cutoff_smoothing_range                               0.000000E+00
 DFT| XC density smoothing                                                  NONE
 DFT| XC derivatives                                                          PW

 FUNCTIONAL| PBE:
 FUNCTIONAL| J.P.Perdew, K.Burke, M.Ernzerhof, Phys. Rev. Letter, vol. 77, n 18,
 FUNCTIONAL|  pp. 3865-3868, (1996) {spin unpolarized}                          


 QS| Method:                                                                GAPW
 QS| Density plane wave grid type                        NON-SPHERICAL FULLSPACE
 QS| Number of grid levels:                                                    4
 QS| Density cutoff [a.u.]:                                                250.0
 QS| Multi grid cutoff [a.u.]: 1) grid level                               250.0
 QS|                           2) grid level                                83.3
 QS|                           3) grid level                                27.8
 QS|                           4) grid level                                 9.3
 QS| Grid level progression factor:                                          3.0
 QS| Relative density cutoff [a.u.]:                                        50.0
 QS| Interaction thresholds: eps_pgf_orb:                                1.0E-12
 QS|                         eps_filter_matrix:                          0.0E+00
 QS|                         eps_core_charge:                            1.0E-14
 QS|                         eps_rho_gspace:                             1.0E-12
 QS|                         eps_rho_rspace:                             1.0E-12
 QS|                         eps_gvg_rspace:                             1.0E-06
 QS|                         eps_ppl:                                    1.0E-02
 QS|                         eps_ppnl:                                   1.0E-08
 QS| GAPW|      One center basis from orbital basis primitives
 QS| GAPW|                   eps_fit:                                    1.0E-04
 QS| GAPW|                   eps_iso:                                    1.0E-12
 QS| GAPW|                   eps_svd:                                    1.0E-08
 QS| GAPW|                   eps_cpc:                                    1.0E-12
 QS| GAPW|   atom-r-grid: quadrature:                                     GC_LOG
 QS| GAPW|      atom-s-grid:  max l :                                          8
 QS| GAPW|      max_l_rho0 :                                                   2
 QS| GAPW|      At least one kind is NOT PAW, i.e. it has only soft AO 
 QS| GAPW|      The NOT PAW atoms are treated fully GPW


 ATOMIC KIND INFORMATION

  1. Atomic kind: Mo                                    Number of atoms:       1

     Orbital Basis Set                                       aug-DZVP-MOLOPT-GTH

       Number of orbital shell sets:                                           1
       Number of orbital shells:                                              13
       Number of primitive Cartesian functions:                                7
       Number of Cartesian basis functions:                                   66
       Number of spherical basis functions:                                   51
       Norm type:                                                              2

       Normalised Cartesian orbitals:

                        Set   Shell   Orbital            Exponent    Coefficient

                          1       1    2s                0.052949       0.001981
                                                         0.083802      -0.010762
                                                         0.189498       0.027372
                                                         0.439257       0.078864
                                                         0.894040       0.689563
                                                         1.999996       0.475974
                                                         2.540273      -1.291314

                          1       2    3s                0.052949      -0.030340
                                                         0.083802      -0.064725
                                                         0.189498      -0.028997
                                                         0.439257       0.016258
                                                         0.894040       0.125661
                                                         1.999996      -0.186721
                                                         2.540273       0.199824

                          1       3    4s                0.052949       0.161590
                                                         0.083802      -0.389742
                                                         0.189498       0.277131
                                                         0.439257      -0.299676
                                                         0.894040       0.351421
                                                         1.999996      -0.520725
                                                         2.540273      -0.447582

                          1       4    5s                0.052949       0.131172
                                                         0.083802      -0.093802
                                                         0.189498       0.012796
                                                         0.439257       0.024038
                                                         0.894040       0.040962
                                                         1.999996       0.074926
                                                         2.540273       0.089644

                          1       5    3px               0.052949       0.000064
                                                         0.083802      -0.000118
                                                         0.189498      -0.006020
                                                         0.439257      -0.180857
                                                         0.894040      -0.605502
                                                         1.999996      -2.548091
                                                         2.540273       2.808966
                          1       5    3py               0.052949       0.000064
                                                         0.083802      -0.000118
                                                         0.189498      -0.006020
                                                         0.439257      -0.180857
                                                         0.894040      -0.605502
                                                         1.999996      -2.548091
                                                         2.540273       2.808966
                          1       5    3pz               0.052949       0.000064
                                                         0.083802      -0.000118
                                                         0.189498      -0.006020
                                                         0.439257      -0.180857
                                                         0.894040      -0.605502
                                                         1.999996      -2.548091
                                                         2.540273       2.808966

                          1       6    4px               0.052949      -0.014133
                                                         0.083802      -0.024680
                                                         0.189498      -0.049917
                                                         0.439257      -0.049442
                                                         0.894040       0.145457
                                                         1.999996       0.340360
                                                         2.540273      -0.187242
                          1       6    4py               0.052949      -0.014133
                                                         0.083802      -0.024680
                                                         0.189498      -0.049917
                                                         0.439257      -0.049442
                                                         0.894040       0.145457
                                                         1.999996       0.340360
                                                         2.540273      -0.187242
                          1       6    4pz               0.052949      -0.014133
                                                         0.083802      -0.024680
                                                         0.189498      -0.049917
                                                         0.439257      -0.049442
                                                         0.894040       0.145457
                                                         1.999996       0.340360
                                                         2.540273      -0.187242

                          1       7    5px               0.052949       0.001268
                                                         0.083802       0.061163
                                                         0.189498       0.001590
                                                         0.439257       0.004548
                                                         0.894040       0.011056
                                                         1.999996       0.030247
                                                         2.540273       0.040785
                          1       7    5py               0.052949       0.001268
                                                         0.083802       0.061163
                                                         0.189498       0.001590
                                                         0.439257       0.004548
                                                         0.894040       0.011056
                                                         1.999996       0.030247
                                                         2.540273       0.040785
                          1       7    5pz               0.052949       0.001268
                                                         0.083802       0.061163
                                                         0.189498       0.001590
                                                         0.439257       0.004548
                                                         0.894040       0.011056
                                                         1.999996       0.030247
                                                         2.540273       0.040785

                          1       8    4dx2              0.052949       0.000173
                                                         0.083802       0.001355
                                                         0.189498       0.023725
                                                         0.439257       0.160904
                                                         0.894040       0.370223
                                                         1.999996       2.115795
                                                         2.540273      -1.655651
                          1       8    4dxy              0.052949       0.000300
                                                         0.083802       0.002348
                                                         0.189498       0.041094
                                                         0.439257       0.278694
                                                         0.894040       0.641245
                                                         1.999996       3.664664
                                                         2.540273      -2.867672
                          1       8    4dxz              0.052949       0.000300
                                                         0.083802       0.002348
                                                         0.189498       0.041094
                                                         0.439257       0.278694
                                                         0.894040       0.641245
                                                         1.999996       3.664664
                                                         2.540273      -2.867672
                          1       8    4dy2              0.052949       0.000173
                                                         0.083802       0.001355
                                                         0.189498       0.023725
                                                         0.439257       0.160904
                                                         0.894040       0.370223
                                                         1.999996       2.115795
                                                         2.540273      -1.655651
                          1       8    4dyz              0.052949       0.000300
                                                         0.083802       0.002348
                                                         0.189498       0.041094
                                                         0.439257       0.278694
                                                         0.894040       0.641245
                                                         1.999996       3.664664
                                                         2.540273      -2.867672
                          1       8    4dz2              0.052949       0.000173
                                                         0.083802       0.001355
                                                         0.189498       0.023725
                                                         0.439257       0.160904
                                                         0.894040       0.370223
                                                         1.999996       2.115795
                                                         2.540273      -1.655651

                          1       9    5dx2              0.052949       0.007711
                                                         0.083802       0.001533
                                                         0.189498       0.015709
                                                         0.439257      -0.054073
                                                         0.894040      -0.378377
                                                         1.999996      -0.795784
                                                         2.540273       0.489245
                          1       9    5dxy              0.052949       0.013357
                                                         0.083802       0.002655
                                                         0.189498       0.027209
                                                         0.439257      -0.093657
                                                         0.894040      -0.655369
                                                         1.999996      -1.378339
                                                         2.540273       0.847396
                          1       9    5dxz              0.052949       0.013357
                                                         0.083802       0.002655
                                                         0.189498       0.027209
                                                         0.439257      -0.093657
                                                         0.894040      -0.655369
                                                         1.999996      -1.378339
                                                         2.540273       0.847396
                          1       9    5dy2              0.052949       0.007711
                                                         0.083802       0.001533
                                                         0.189498       0.015709
                                                         0.439257      -0.054073
                                                         0.894040      -0.378377
                                                         1.999996      -0.795784
                                                         2.540273       0.489245
                          1       9    5dyz              0.052949       0.013357
                                                         0.083802       0.002655
                                                         0.189498       0.027209
                                                         0.439257      -0.093657
                                                         0.894040      -0.655369
                                                         1.999996      -1.378339
                                                         2.540273       0.847396
                          1       9    5dz2              0.052949       0.007711
                                                         0.083802       0.001533
                                                         0.189498       0.015709
                                                         0.439257      -0.054073
                                                         0.894040      -0.378377
                                                         1.999996      -0.795784
                                                         2.540273       0.489245

                          1      10    6dx2              0.052949       0.008761
                                                         0.083802       0.000931
                                                         0.189498       0.003883
                                                         0.439257       0.016908
                                                         0.894040       0.058644
                                                         1.999996       0.239965
                                                         2.540273       0.364660
                          1      10    6dxy              0.052949       0.015174
                                                         0.083802       0.001613
                                                         0.189498       0.006725
                                                         0.439257       0.029286
                                                         0.894040       0.101574
                                                         1.999996       0.415632
                                                         2.540273       0.631609
                          1      10    6dxz              0.052949       0.015174
                                                         0.083802       0.001613
                                                         0.189498       0.006725
                                                         0.439257       0.029286
                                                         0.894040       0.101574
                                                         1.999996       0.415632
                                                         2.540273       0.631609
                          1      10    6dy2              0.052949       0.008761
                                                         0.083802       0.000931
                                                         0.189498       0.003883
                                                         0.439257       0.016908
                                                         0.894040       0.058644
                                                         1.999996       0.239965
                                                         2.540273       0.364660
                          1      10    6dyz              0.052949       0.015174
                                                         0.083802       0.001613
                                                         0.189498       0.006725
                                                         0.439257       0.029286
                                                         0.894040       0.101574
                                                         1.999996       0.415632
                                                         2.540273       0.631609
                          1      10    6dz2              0.052949       0.008761
                                                         0.083802       0.000931
                                                         0.189498       0.003883
                                                         0.439257       0.016908
                                                         0.894040       0.058644
                                                         1.999996       0.239965
                                                         2.540273       0.364660

                          1      11    5fx3              0.052949       0.001012
                                                         0.083802      -0.002115
                                                         0.189498      -0.007561
                                                         0.439257      -0.130475
                                                         0.894040      -0.269636
                                                         1.999996      -0.886325
                                                         2.540273       0.868073
                          1      11    5fx2y             0.052949       0.002263
                                                         0.083802      -0.004728
                                                         0.189498      -0.016907
                                                         0.439257      -0.291752
                                                         0.894040      -0.602925
                                                         1.999996      -1.981882
                                                         2.540273       1.941070
                          1      11    5fx2z             0.052949       0.002263
                                                         0.083802      -0.004728
                                                         0.189498      -0.016907
                                                         0.439257      -0.291752
                                                         0.894040      -0.602925
                                                         1.999996      -1.981882
                                                         2.540273       1.941070
                          1      11    5fxy2             0.052949       0.002263
                                                         0.083802      -0.004728
                                                         0.189498      -0.016907
                                                         0.439257      -0.291752
                                                         0.894040      -0.602925
                                                         1.999996      -1.981882
                                                         2.540273       1.941070
                          1      11    5fxyz             0.052949       0.003920
                                                         0.083802      -0.008190
                                                         0.189498      -0.029283
                                                         0.439257      -0.505328
                                                         0.894040      -1.044297
                                                         1.999996      -3.432721
                                                         2.540273       3.362032
                          1      11    5fxz2             0.052949       0.002263
                                                         0.083802      -0.004728
                                                         0.189498      -0.016907
                                                         0.439257      -0.291752
                                                         0.894040      -0.602925
                                                         1.999996      -1.981882
                                                         2.540273       1.941070
                          1      11    5fy3              0.052949       0.001012
                                                         0.083802      -0.002115
                                                         0.189498      -0.007561
                                                         0.439257      -0.130475
                                                         0.894040      -0.269636
                                                         1.999996      -0.886325
[...]

 T. D. Kuehne, M. Iannuzzi, M. Del Ben, V. V. Rybkin, P. Seewald, F. Stein, T. 
 Laino, R. Z. Khaliullin, O. Schuett, F. Schiffmann, D. Golze, J. Wilhelm, S. 
 Chulkov, M. H. Bani-Hashemian, V. Weber, U. Borstnik, M. Taillefumier, A. S. 
 Jakobovits, A. Lazzaro, H. Pabst, T. Mueller, R. Schade, M. Guidon, S. 
 Andermatt, N. Holmberg, G. K. Schenter, A. Hehn, A. Bussy, F. Belleflamme, G. 
 Tabacchi, A. Gloess, M. Lass, I. Bethune, C. J. Mundy, C. Plessl, M. Watkins, 
 J. VandeVondele, M. Krack, J. Hutter.
 J. Chem. Phys. 152, 194103 (2020).
 CP2K: An electronic structure and molecular dynamics software package - 
 Quickstep: Efficient and accurate electronic structure calculations.
 https://doi.org/10.1063/5.0007045

 O. Schuett, P. Messmer, J. Hutter, J. VandeVondele.
 Electronic Structure Calculations on Graphics Processing Units, 173-190 (2016).
 GPU-Accelerated Sparse Matrix-Matrix Multiplication for Linear Scaling Density 
 Functional Theory.
 https://doi.org/10.1002/9781118670712.ch8

 J. Hutter, M. Iannuzzi, F. Schiffmann, J. VandeVondele.
 WIREs Comput Mol Sci. 4, 15-25 (2014).
 CP2K: atomistic simulations of condensed matter systems.
 https://doi.org/10.1002/wcms.1159

 U. Borstnik, J. VandeVondele, V. Weber, J. Hutter.
 Parallel Comput. 40, 47-58 (2014).
 Sparse matrix multiplication: The distributed block-compressed sparse row 
 library.
 https://doi.org/10.1016/j.parco.2014.03.012

 J. VandeVondele, J. Hutter.
 J. Chem. Phys. 127, 114105 (2007).
 Gaussian basis sets for accurate calculations on molecular systems in gas and 
 condensed phases.
 https://doi.org/10.1063/1.2770708

 M. Krack.
 Theor. Chem. Acc. 114, 145-152 (2005).
 Pseudopotentials for H to Kr optimized for gradient-corrected 
 exchange-correlation functionals.
 https://doi.org/10.1007/s00214-005-0655-y

 M. Frigo, S. G. Johnson.
 Proc. IEEE 93, 216-231 (2005).
 The design and implementation of FFTW3.
 https://doi.org/10.1109/JPROC.2004.840301

 M. Krack, M. Parrinello.
 Phys. Chem. Chem. Phys. 2, 2105-2112 (2000).
 All-electron ab-initio molecular dynamics.
 https://doi.org/10.1039/b001167n

 G. Lippert, J. Hutter, M. Parrinello.
 Theor. Chem. Acc. 103, 124-140 (1999).
 The Gaussian and augmented-plane-wave density functional method for ab initio 
 molecular dynamics simulations.
 https://doi.org/10.1007/s002140050523

 C. Hartwigsen, S. Goedecker, J. Hutter.
 Phys. Rev. B 58, 3641-3662 (1998).
 Relativistic separable dual-space Gaussian pseudopotentials from H to Rn.
 https://doi.org/10.1103/PhysRevB.58.3641

 S. Goedecker, M. Teter, J. Hutter.
 Phys. Rev. B 54, 1703-1710 (1996).
 Separable dual-space Gaussian pseudopotentials.
 https://doi.org/10.1103/PhysRevB.54.1703

 J. P. Perdew, K. Burke, M. Ernzerhof.
 Phys. Rev. Lett. 77, 3865-3868 (1996).
 Generalized gradient approximation made simple.
 https://doi.org/10.1103/PhysRevLett.77.3865


 -------------------------------------------------------------------------------
 -                                                                             -
 -                                T I M I N G                                  -
 -                                                                             -
 -------------------------------------------------------------------------------
 SUBROUTINE                       CALLS  ASD         SELF TIME        TOTAL TIME
                                MAXIMUM       AVERAGE  MAXIMUM  AVERAGE  MAXIMUM
 CP2K                                 1  1.0      0.0      0.0 137995.5 137995.5
 qs_energies                          1  2.0      0.0      0.0 137994.0 137994.0
 qs_energies_properties               1  3.0      0.0      0.0 137238.0 137238.1
 post_scf_bandstructure               1  4.0      0.0      0.0 137238.0 137238.1
 gw                                   1  5.0      0.0      0.0 137054.9 137054.9
 gw_calc_small_cell_full_kp           1  6.0      0.0      0.0 132975.4 132975.4
 dbt_total                      *******  9.9    244.0    271.1 110659.9 115655.8
 dbt_contract                   ******* 10.6    407.5    449.1  81567.5  83644.4
 dbt_tas_multiply               ******* 13.0     45.2     53.0  73961.6  77035.0
 dbt_tas_total                  ******* 14.0   1909.5   2030.2  72511.4  74210.0
 compute_Sigma_c                      1  7.0      0.0      0.0  65634.2  65634.3
 compute_chi                          1  7.0      0.3      0.4  51799.5  51799.5
 dbt_tas_dbm                    ******* 15.0     41.6     48.7  38530.0  39409.6
 contract_to_Sigma                  915  8.0    293.4    363.8  36699.1  39062.9
 mp_sync                        ******* ****  24122.6  38421.0  24122.6  38421.0
 dbm_multiply                   ******* 17.0  33783.5  37704.9  33783.5  37704.9
 dbt_copy                       ******* 11.1    226.8    254.7  28470.4  36060.4
 contract_M_occ_vir_to_chi          450  8.0    527.1    699.2  28926.7  29844.0
 dbt_reshape                    ******* 12.0  13938.7  19026.2  23445.1  29839.0
 contract_W                         465  8.0     44.3     46.9  26336.5  27913.7
 contract_to_Sigma_3c_x_G       *******  9.0     35.0     37.8  20892.3  22741.0
 dbt_tas_mm_2                   5696282 16.1     20.5     23.6  20606.5  21101.1
 G_times_3c                       56340  8.0     54.1     57.6  20376.6  20981.3
 get_t_3c_int                   *******  9.6    187.2    240.3  15536.3  17943.4
 contract_to_Sigma_contract       57279  9.0     59.1     61.8  15335.8  15824.9
 dbt_tas_estimate_result_nze    8462212 13.5   4268.1   5215.3  13830.0  14149.9
 compute_W_real_space                 1  7.0     33.9     34.6  13416.9  13416.9
 compute_Minv_and_Vsqrt               1  8.0      0.4      0.4  11886.5  11887.1
 build_2c_coulomb_matrix_kp_sma       2  9.0     14.0     15.0  11863.8  11863.9
 build_2c_coulomb_matrix_kp_sma  655360 10.0  10235.8  10829.1  10235.8  10829.1
 dbt_tas_mm_3T                  6771562 16.2     12.3     15.3   8733.3   9773.2
 dbt_communicate_buffer         ******* 13.0     65.2     78.9   7835.2   8926.5
 mp_isend_dv                    ******* 17.7   6912.1   8261.2   6912.1   8261.2
 dbt_remap                      1078713 11.0    176.8    195.2   6307.6   8245.8
 dbt_tas_mm_1N                  4474562 15.5      7.4      9.1   5712.2   7236.8
 dbt_tas_reshape                ******* 15.5    242.1    263.2   6116.2   6656.5
 convert_to_new_pgrid           ******* 15.0    295.6    325.9   4296.9   5474.7
 reshape_mm_small               ******* 15.0   1677.9   1752.4   5010.9   5210.9
 dbm_copy                       ******* 16.0   4001.3   5149.2   4001.3   5149.2
 create_and_init_bs_env_for_gw        1  6.0      0.0      0.0   4079.5   4079.6
 dbt_tas_reserve_blocks_index   ******* 15.8    160.4    171.8   3182.7   4062.6
 dbm_reserve_blocks             ******* 16.6   3151.2   4037.9   3151.2   4037.9
 compute_3c_integrals                 1  7.0      0.1      0.1   3918.6   3918.6
 build_3c_integrals                   1  8.0   2328.3   3890.2   2350.6   3917.7
 dbt_tas_create_split           ******* 16.1     73.5     82.1   3344.6   3566.3
 dbt_tas_create_split_rows_or_c ******* 17.1    273.6    294.2   3271.1   3495.2
 mp_waitall_2                   ******* 17.6   2870.2   3491.8   2870.2   3491.8
 dbt_tas_copy                   ******* 12.6   1654.1   2421.9   2338.3   3367.4
 dbt_copy_nocomm                3473730 11.0   1653.1   2297.5   2232.4   3135.4
 dbt_reserve_blocks_index_array ******* 13.0     35.8     41.6   2114.8   2820.8
 dbt_reserve_blocks_index       ******* 14.0     55.5     67.9   2097.6   2803.0
 reshape_mm_compatible          ******* 15.0    355.9    374.2   2582.8   2735.8
 dbt_tas_communicate_buffer     ******* 17.3    216.6    237.0   2393.2   2711.6
 dbt_tas_distribution_new       ******* 15.8   1105.4   1182.2   2340.8   2508.9
 dbt_tas_reshape_buffer_obtain  ******* 16.5   1685.7   2027.3   2061.7   2484.7
 dbt_tas_replicate              ******* 15.0    969.3   1068.7   2196.7   2309.2
 dbm_filter                     ******* 14.9   1820.9   2223.8   1820.9   2223.8
 dbt_tas_reshape_communicate_bu ******* 16.5     31.7     34.5   1867.7   2181.3
 change_split                   ******* 15.5    125.7    136.0   1868.5   1995.2
 compute_Sigma_x                      1  7.0      0.0      0.0   1971.7   1971.7
 dbt_tas_reshape_buffer_fill    ******* 16.5   1713.1   1936.6   1713.1   1936.6
 mp_cart_create                 ******* 16.8   1386.9   1490.2   1466.5   1583.1
 mp_sum_l                       ******* 15.2    924.5   1407.2    924.5   1407.2
 mp_comm_dup                    ******* 18.6   1027.4   1142.5   1070.1   1186.5
 dbt_tas_reserve_blocks_templat ******* 14.1    144.2    171.1    921.8   1181.4
 mp_comm_split_direct           ******* 18.1    976.9   1062.3   1004.0   1090.2
 dbm_add                        ******* 15.0    880.9   1025.1    880.9   1025.1
 dbt_reserve_blocks_template    3473730 12.0     17.4     20.2    579.4    848.8
 scf_env_do_scf                       1  3.0      0.0      0.0    755.4    755.4
 scf_env_do_scf_inner_loop           63  4.0      0.0      0.0    755.4    755.4
 dbcsr_complete_redistribute     475444  9.7     17.1     26.0    668.7    727.5
 qs_scf_new_mos_kp                   63  5.0      0.0      0.0    718.8    718.9
 do_general_diag_kp                  63  6.0      0.7      0.8    718.8    718.9
 dbt_permute_index              ******* 12.3    515.6    582.8    586.5    661.3
 mp_sum_dm                       655422 10.0    624.7    630.0    624.7    630.0
 dbt_tas_create_new             ******* 15.3    578.7    626.8    578.7    626.8
 copy_dbcsr_to_fm                264625  8.1      2.9      3.3    608.1    612.7
 mp_alltoall_i                  ******* 15.1    336.7    578.5    336.7    578.5
 dbt_tas_mp_comm                9532258 13.2     50.1     54.3    534.5    559.9
 add_V_L                         327680 10.0     17.3    557.7     17.3    557.7
 dbt_tas_replicate_communicate_ ******* 15.9     20.3     21.9    500.6    557.3
 G_occ_vir                          121  8.0      0.7      0.8    538.8    541.5
 dbcsr_desymmetrize_deep         407713  8.4      6.8      8.8    515.5    524.8
 dbt_align_index                ******* 11.5     71.9     80.0    468.7    518.8
 add_ikp_to_rs                  *******  9.9    437.8    509.7    437.8    509.7
 add_rs_to_ikp                  *******  9.9    485.7    500.3    485.7    500.3
 dbt_tas_merge                  5696282 15.1    285.7    307.1    466.1    490.1
 fm_to_local_tensor              146072  9.0      3.7      4.5    484.6    484.6
 add_ikp_to_all_rs                 9848  8.0      6.9      7.9    394.7    467.3
 trafo_rs_to_ikp                  10736  8.1      8.1      8.4    444.3    458.1
 mp_alltoall_i22                 883157 10.1    371.4    437.3    371.4    437.3
 mp_comm_free                   ******* -9.8    400.0    425.6    400.0    425.6
 copy_fm_to_dbcsr                210819  9.4      1.0      1.1    348.9    408.7
 fm_to_local_array                  934  8.1     80.9    105.4    347.5    348.7
 mp_alltoall_d11v               2649471 10.5    331.9    334.7    331.9    334.7
 mp_alltoall_i11v               1834045 10.4    307.6    308.2    307.6    308.2
 add_R                          ******* -8.6    205.0    214.1    280.4    291.1
 dbt_tas_replicate_alltoall     ******* 15.9     14.2     15.6    128.3    281.4
 local_dbt_to_global_fm              91  8.0      0.3      0.3    261.3    261.3
 mp_sum_dm3                        1058  9.0    250.9    257.0    250.9    257.0
 dbt_destroy                    ******* 11.4    186.2    229.6    199.5    242.8
 dbt_distribution_new_expert    2449580 12.4     34.6     38.6    218.9    239.0
 global_matrix_to_local_matrix   146072 10.0      2.8      6.1    177.4    235.6
 reshape_mm_template            2157426 15.5    124.0    133.8    218.0    230.7
 mp_cart_get                    *******  3.2    195.6    213.9    195.6    213.9
 mp_waitall_1                   1402761 11.2    148.5    205.2    148.5    205.2
 power                            20408  8.0     19.9     20.5    196.7    203.2
 send_data                       146072 11.0      0.2      0.2    136.9    189.5
 communicate_buffer              146072 12.0      2.3     25.2    136.8    189.3
 diag_complex                     20408  9.0    176.8    183.3    176.8    183.3
 mp_comm_size                   ******* -4.1    147.7    176.6    147.7    176.6
 mp_max_i                       ******* 11.6    146.1    164.9    146.1    164.9
 dbm_scale                      ******* 13.4    127.5    164.8    127.5    164.8
 kpoint_density_transform            63  7.0      0.2      0.3    160.6    160.7
 hybrid_alltoall_any             407713  9.4      2.0      2.1    154.0    155.4
 dbt_tas_reshape_alltoall       ******* 16.5     24.9     29.1    102.3    154.4
 compute_QP_energies                  1  7.0      0.1      0.1    153.1    153.1
 trafo_to_k_and_nn                71492  8.0      0.7      0.9    152.8    152.8
 rskp_transform                   71544  7.1      2.8    149.0      2.8    149.0
 dbt_pgrid_create_expert        2449583 13.4      7.4      9.8     70.8    147.6
 fm_add_ikp_to_rs                123904  9.0     77.7     79.9    127.7    135.0
 is_cell_in_index_to_cell       ******* -0.9    129.5    134.1    129.5    134.1
 mult_W_with_Minv                    30  8.0      1.8      2.0    128.8    129.0
 dbt_tas_reshape_get_coord      ******* 16.5    114.6    125.6    114.6    125.6
 cp_cfm_gemm                     284468 10.9    104.0    125.3    104.0    125.3
 parallel_gemm_cfm               280952  8.9      0.3      0.4    103.5    124.8
 parallel_gemm_cfm_gemm          280952  9.9      0.3      0.4    103.2    124.5
 dbt_nd_mp_comm                 1224785 11.9      5.4      6.3     46.0    122.0
 dbt_create_new                 1224790 11.9     23.2     28.0    111.8    119.8
 cp_cfm_heevd                      4940  7.5      0.0      0.0    118.9    119.0
 cp_cfm_heevd_base                 4940  8.5    118.9    119.0    118.9    119.0
 mp_bcast_i                     ******* 18.1    103.4    116.7    103.4    116.7
 mp_comm_rank                   ******* -4.1    107.0    116.3    107.0    116.3
 fm_MWM_R_t_to_local_tensor_W_R      30  8.0      0.0      0.1    115.0    115.0
 setup_cells_3c                       1  7.0      2.0      2.0    114.1    114.1
 dbt_create_matrix               146072 10.0      1.9      2.0     37.0    113.3
 build_3c_integral_block          14607  8.0     69.3     77.4    106.2    112.2
 get_V_tr_R                          34  9.0      0.1      0.2    101.8    102.0
 fm_trafo_rs_to_ikp               71492  9.0     46.8     47.8     96.3    101.1
 dbt_tas_merge_communicate_buff 5696282 16.1     11.0     13.0     87.8     96.1
 dos_pdos_ldos                        1  5.0      0.0      0.0     88.7     88.8
 SOC_ev                            2344  6.0      0.0      0.0     84.1     84.1
 get_data                        146072 11.0      6.7     78.0      7.1     78.5
 local_dbt_to_global_mat          87451  9.0      1.0      1.3     48.5     74.1
 dbcsr_finalize                 1864459 11.0     13.2     16.3     58.1     71.6
 mp_isend_lm2                   ******* 18.3     62.5     67.5     62.5     67.5
 transform_dmat                   32256  8.0      1.2     66.2      1.2     66.2
 local_matrix_to_global_matrix    87451 10.0      0.4      0.4     39.8     65.6
 create_and_init_bs_env               1  5.0      0.0      0.0     64.0     64.0
 compute_cfm_mo_coeff_kp_and_ei       1  6.0      0.0      0.0     64.0     64.0
 cp_fm_start_copy_general        193536  7.3      2.0      3.4     63.4     63.8
 rsmat_to_kp                       7032  7.2      0.1      0.1     58.1     58.3
 mp_cart_sub                     529329 10.1     56.3     56.5     56.3     56.5
 mp_sum_i                       ******* 16.0     47.3     56.4     47.3     56.4
 dbt_tas_merge_alltoall         5696282 16.1     10.8     12.3     37.8     53.2
 mp_allgather_i                  387072  8.3     51.5     52.5     51.5     52.5
 mp_irecv_dv                    ******* 17.7     40.8     47.9     40.8     47.9
 mp_irecv_lm2                   ******* 18.3     41.9     46.3     41.9     46.3
 cp_cfm_geeig_canon                1172  7.0      0.0      0.0     44.2     44.2
 dbcsr_filter_anytype            661772 11.0      4.5      5.0     33.8     44.1
 dbt_create_3c_R1_R2                 62  8.0      5.8      6.0     41.0     44.0
 dbt_create_template            3875180  9.0     37.7     40.8     37.7     40.8
 abc_contract_xsmm                46116  9.0     36.4     39.9     36.4     39.9
 mp_dims_create                 ******* 14.4     34.1     39.8     34.1     39.8
 dbcsr_merge_all                 701799 11.8     21.7     27.4     29.3     36.6
 mp_isend_im2                   ******* 14.0     19.4     35.3     19.4     35.3
 dbt_buffer_get_index           ******* 16.8     25.6     31.9     25.6     31.9
 set_blocks                       87451 11.0      2.0     15.5     11.3     31.4
 soc                                  1  5.0      0.0      0.0     30.4     30.4
 H_KS_spinor_kp                       1  6.0      0.0      0.0     30.3     30.3
 mp_irecv_im2                   9669523 14.0     19.4     30.1     19.4     30.1
 dbt_distribution_destroy       2449580 12.4     21.5     24.7     26.6     30.0
 destroy_t_2d                        62  8.0      6.6      6.9     24.1     26.2
 heuristic_RI_regularization          1  7.0      0.0      0.0     24.8     24.8
 dbcsr_create_new               1563908  9.9     14.6     16.0     22.6     24.8
 mp_cart_rank                   ******* 15.9     15.5     20.8     15.5     20.8
 alloc_block_3c                       1  9.0      0.2      0.3     16.6     20.6
 comm_data                        87451 11.0      0.5      3.7     16.6     18.8
 qs_ks_build_kohn_sham_matrix        66  7.0      0.0      0.0     18.7     18.7
 qs_ks_update_qs_env                 63  5.0      0.0      0.0     18.5     18.5
 rebuild_ks_matrix                   63  6.0      0.0      0.0     17.8     17.9
 transfer_pw2rs                     331 10.6      0.0      0.0     17.4     17.7
 transfer_pw2rs_250                 133 11.0      0.2      0.3     17.1     17.5
 sum_up_and_integrate                66  8.0      0.0      0.0      1.0     17.5
 integrate_v_rspace                  66  9.0      0.0      0.1      1.0     17.5
 integrate_vhg0_rspace               66  8.0      0.0      0.0     16.8     17.2
 grid_integrate_task_list            66 10.0      0.3     16.7      0.3     16.7
 build_2c_integrals                  34 10.0      0.2      6.8      0.6     15.5
 transfer_rs2pw                     324  8.4      0.0      0.0     14.6     14.9
 transfer_rs2pw_250                 132 10.0      0.3      0.3     14.3     14.6
 qs_rho_update_rho_low               64  5.0      0.0      0.0     14.6     14.6
 calculate_rho_elec                  64  6.0      0.0      0.0     14.6     14.6
 mp_sendrecv_dv                   41148 10.4     14.2     14.5     14.2     14.5
 density_rs2pw                       64  7.0      0.0      0.0     14.1     14.4
 dbcsr_work_create              1109512 10.4      8.0      9.6     11.9     14.2
 dbcsr_iterator_start           3995412 10.9     12.0     12.3     13.2     13.8
 -------------------------------------------------------------------------------

 The number of warnings for this run is : 2
 
 -------------------------------------------------------------------------------
  **** **** ******  **  PROGRAM ENDED AT                 2025-02-07 15:21:06.470
 ***** ** ***  *** **   PROGRAM RAN ON                              f01r01c06s03
 **    ****   ******    PROGRAM RAN BY                                   di38fab
 ***** **    ** ** **   PROGRAM PROCESS ID                               1715589
  **** **  *******  **  PROGRAM STOPPED IN /hppfs/scratch/04/di38fab/04_TMD/2_Mo
                                           Se2/DZVP/1e-3
