 DBCSR| CPU Multiplication driver                                           XSMM (U)
 DBCSR| Multrec recursion limit                                              512 (U)
 DBCSR| Multiplication stack size                                           1000 (D)
 DBCSR| Maximum elements for images                                    UNLIMITED (U)
 DBCSR| Multiplicative factor virtual images                                   1 (U)
 DBCSR| Use multiplication densification                                       T (D)
 DBCSR| Multiplication size stacks                                             3 (U)
 DBCSR| Use memory pool for CPU allocation                                     F (U)
 DBCSR| Number of 3D layers                                               SINGLE (U)
 DBCSR| Use MPI memory allocation                                              F (U)
 DBCSR| Use RMA algorithm                                                      F (U)
 DBCSR| Use Communication thread                                               T (U)
 DBCSR| Communication thread load                                             30 (D)
 DBCSR| MPI: My process id                                                     0
 DBCSR| MPI: Number of processes                                              48
 DBCSR| OMP: Current number of threads                                        16
 DBCSR| OMP: Max number of threads                                            16
 DBCSR| Split modifier for TAS multiplication algorithm                  1.0E+00 (U)


  **** **** ******  **  PROGRAM STARTED AT               2025-05-25 04:04:50.660
 ***** ** ***  *** **   PROGRAM STARTED ON                n2lcn0104.ab2021.local
 **    ****   ******    PROGRAM STARTED BY                              metdyn02
 ***** **    ** ** **   PROGRAM PROCESS ID                               1217995
  **** **  *******  **  PROGRAM STARTED IN /scratch/hpc-prf-metdyn/metdyn02_Remi
                                           /05_TMD_new/paperbenchmarks/timepoint
                                           sHEDIN/26

 CP2K| version string:                 CP2K version 2025.1 (Development Version)
 CP2K| source code revision number:                                  git:f0c7327
 CP2K| cp2kflags: omp libint fftw3 libxc libgrpp elpa parallel scalapack mpi_f08
 CP2K|             cosma xsmm plumed2 spglib libvori libbqb libvdwxc hdf5
 CP2K| is freely available from                            https://www.cp2k.org/
 CP2K| Program compiled at                         Sat May 24 17:46:41 CEST 2025
 CP2K| Program compiled on                                              n2login1
 CP2K| Program compiled for                                                local
 CP2K| Data directory path    /opt/software/pc2/EB-SW/software/CP2K/2024.1-foss-
 CP2K| Input file name                                                    GW.inp

 GLOBAL| Force Environment number                                              1
 GLOBAL| Basis set file name            /scratch/hpc-prf-metdyn/metdyn02_Remi/05
 GLOBAL| Potential file name            /pc2/groups/hpc-prf-metdyn/metdyn02_Remi
 GLOBAL| MM Potential file name                                     MM_POTENTIAL
 GLOBAL| Coordinate file name                                      __STD_INPUT__
 GLOBAL| Method name                                                        CP2K
 GLOBAL| Project name                                                       WSe2
 GLOBAL| Run type                                                         ENERGY
 GLOBAL| FFT library                                                       FFTW3
 GLOBAL| Diagonalization library                                            ELPA
 GLOBAL| DGEMM library                                                      BLAS
 GLOBAL| Minimum number of eigenvectors for ELPA usage                        16
 GLOBAL| Orthonormality check for eigenvectors                          DISABLED
 GLOBAL| Matrix multiplication library                                     COSMA
 GLOBAL| All-to-all communication in single precision                          F
 GLOBAL| FFTs using library dependent lengths                                  F
 GLOBAL| Grid backend                                                       AUTO
 GLOBAL| Global print level                                               MEDIUM
 GLOBAL| MPI I/O enabled                                                       T
 GLOBAL| Total number of message passing processes                            48
 GLOBAL| Number of threads for this process                                   16
 GLOBAL| This output is from process                                           0
 GLOBAL| OpenMP stack size per thread (OMP_STACKSIZE)                    default
 GLOBAL| CPU model name                          AMD EPYC 7763 64-Core Processor
 GLOBAL| CPUID                                                              1002

 MEMORY| system memory details [Kb]
 MEMORY|                        rank 0           min           max       average
 MEMORY| MemTotal           1056620528    1056620428    1056620532    1056620493
 MEMORY| MemFree            1038807076    1038807076    1042766132    1041496524
 MEMORY| Buffers                139288        129712        139288        132286
 MEMORY| Cached               11281212       7177572      11281212       8675677
 MEMORY| Slab                  1643316       1477216       1717100       1592592
 MEMORY| SReclaimable           372456        342100        419776        382578
 MEMORY| MemLikelyFree      1050600032    1050415516    1050854372    1050687066


 *** Fundamental physical constants (SI units) ***

 *** Literature: B. J. Mohr and B. N. Taylor,
 ***             CODATA recommended values of the fundamental physical
 ***             constants: 2006, Web Version 5.1
 ***             http://physics.nist.gov/constants

 Speed of light in vacuum [m/s]                             2.99792458000000E+08
 Magnetic constant or permeability of vacuum [N/A**2]       1.25663706143592E-06
 Electric constant or permittivity of vacuum [F/m]          8.85418781762039E-12
 Planck constant (h) [J*s]                                  6.62606896000000E-34
 Planck constant (h-bar) [J*s]                              1.05457162825177E-34
 Elementary charge [C]                                      1.60217648700000E-19
 Electron mass [kg]                                         9.10938215000000E-31
 Electron g factor [ ]                                     -2.00231930436220E+00
 Proton mass [kg]                                           1.67262163700000E-27
 Fine-structure constant                                    7.29735253760000E-03
 Rydberg constant [1/m]                                     1.09737315685270E+07
 Avogadro constant [1/mol]                                  6.02214179000000E+23
 Boltzmann constant [J/K]                                   1.38065040000000E-23
 Atomic mass unit [kg]                                      1.66053878200000E-27
 Bohr radius [m]                                            5.29177208590000E-11

 *** Conversion factors ***

 [u] -> [a.u.]                                              1.82288848426455E+03
 [Angstrom] -> [Bohr] = [a.u.]                              1.88972613288564E+00
 [a.u.] = [Bohr] -> [Angstrom]                              5.29177208590000E-01
 [a.u.] -> [s]                                              2.41888432650478E-17
 [a.u.] -> [fs]                                             2.41888432650478E-02
 [a.u.] -> [J]                                              4.35974393937059E-18
 [a.u.] -> [N]                                              8.23872205491840E-08
 [a.u.] -> [K]                                              3.15774647902944E+05
 [a.u.] -> [kJ/mol]                                         2.62549961709828E+03
 [a.u.] -> [kcal/mol]                                       6.27509468713739E+02
 [a.u.] -> [Pa]                                             2.94210107994716E+13
 [a.u.] -> [bar]                                            2.94210107994716E+08
 [a.u.] -> [atm]                                            2.90362800883016E+08
 [a.u.] -> [eV]                                             2.72113838565563E+01
 [a.u.] -> [Hz]                                             6.57968392072181E+15
 [a.u.] -> [1/cm] (wave numbers)                            2.19474631370540E+05
 [a.u./Bohr**2] -> [1/cm]                                   5.14048714338585E+03
 

 CELL_TOP| Volume [angstrom^3]:                                       143.098933
 CELL_TOP| Vector a [angstrom     3.319     0.000     0.000   |a| =     3.319000
 CELL_TOP| Vector b [angstrom    -1.659     2.874     0.000   |b| =     3.319000
 CELL_TOP| Vector c [angstrom     0.000     0.000    15.000   |c| =    15.000000
 CELL_TOP| Angle (b,c), alpha [degree]:                                90.000000
 CELL_TOP| Angle (a,c), beta  [degree]:                                90.000000
 CELL_TOP| Angle (a,b), gamma [degree]:                               120.000000
 CELL_TOP| Numerically orthorhombic:                                          NO
 CELL_TOP| Periodicity                                                        XY

 GENERATE|  Preliminary Number of Bonds generated:                             0
 GENERATE|  Achieved consistency in connectivity generation.

 CELL| Volume [angstrom^3]:                                           143.098933
 CELL| Vector a [angstrom]:       3.319     0.000     0.000   |a| =     3.319000
 CELL| Vector b [angstrom]:      -1.659     2.874     0.000   |b| =     3.319000
 CELL| Vector c [angstrom]:       0.000     0.000    15.000   |c| =    15.000000
 CELL| Angle (b,c), alpha [degree]:                                    90.000000
 CELL| Angle (a,c), beta  [degree]:                                    90.000000
 CELL| Angle (a,b), gamma [degree]:                                   120.000000
 CELL| Numerically orthorhombic:                                              NO
 CELL| Periodicity                                                            XY

 CELL_REF| Volume [angstrom^3]:                                       143.098933
 CELL_REF| Vector a [angstrom     3.319     0.000     0.000   |a| =     3.319000
 CELL_REF| Vector b [angstrom    -1.659     2.874     0.000   |b| =     3.319000
 CELL_REF| Vector c [angstrom     0.000     0.000    15.000   |c| =    15.000000
 CELL_REF| Angle (b,c), alpha [degree]:                                90.000000
 CELL_REF| Angle (a,c), beta  [degree]:                                90.000000
 CELL_REF| Angle (a,b), gamma [degree]:                               120.000000
 CELL_REF| Numerically orthorhombic:                                          NO
 CELL_REF| Periodicity                                                        XY

 *******************************************************************************
                                    Kpoints
 *******************************************************************************
 BRILLOUIN| K-point scheme                                        Monkhorst-Pack
 BRILLOUIN| K-Point grid                                            32   32    1
 BRILLOUIN| Accuracy in Symmetry determination                      0.100000E-05
 BRILLOUIN| K-Point point group symmetrization                               OFF
 BRILLOUIN| Wavefunction type                                            COMPLEX
 BRILLOUIN| List of Kpoints [2 Pi/Bohr]                                      512
 BRILLOUIN| Number           Weight            X              Y              Z
 BRILLOUIN|     1           0.00195       -0.48438       -0.48438        0.00000
 BRILLOUIN|     2           0.00195       -0.48438       -0.45312        0.00000
 BRILLOUIN|     3           0.00195       -0.48438       -0.42188        0.00000
 BRILLOUIN|     4           0.00195       -0.48438       -0.39062        0.00000
 BRILLOUIN|     5           0.00195       -0.48438       -0.35938        0.00000
 BRILLOUIN|     6           0.00195       -0.48438       -0.32812        0.00000
 BRILLOUIN|     7           0.00195       -0.48438       -0.29688        0.00000
 BRILLOUIN|     8           0.00195       -0.48438       -0.26562        0.00000
 BRILLOUIN|     9           0.00195       -0.48438       -0.23438        0.00000
 BRILLOUIN|    10           0.00195       -0.48438       -0.20312        0.00000
 BRILLOUIN|    11           0.00195       -0.48438       -0.17188        0.00000
 BRILLOUIN|    12           0.00195       -0.48438       -0.14062        0.00000
 BRILLOUIN|    13           0.00195       -0.48438       -0.10938        0.00000
 BRILLOUIN|    14           0.00195       -0.48438       -0.07812        0.00000
 BRILLOUIN|    15           0.00195       -0.48438       -0.04688        0.00000
 BRILLOUIN|    16           0.00195       -0.48438       -0.01562        0.00000
 BRILLOUIN|    17           0.00195       -0.48438        0.01562        0.00000
 BRILLOUIN|    18           0.00195       -0.48438        0.04688        0.00000
 BRILLOUIN|    19           0.00195       -0.48438        0.07812        0.00000
 BRILLOUIN|    20           0.00195       -0.48438        0.10938        0.00000
 BRILLOUIN|    21           0.00195       -0.48438        0.14062        0.00000
 BRILLOUIN|    22           0.00195       -0.48438        0.17188        0.00000
 BRILLOUIN|    23           0.00195       -0.48438        0.20312        0.00000
 BRILLOUIN|    24           0.00195       -0.48438        0.23438        0.00000
 BRILLOUIN|    25           0.00195       -0.48438        0.26562        0.00000
 BRILLOUIN|    26           0.00195       -0.48438        0.29688        0.00000
 BRILLOUIN|    27           0.00195       -0.48438        0.32812        0.00000
 BRILLOUIN|    28           0.00195       -0.48438        0.35938        0.00000
 BRILLOUIN|    29           0.00195       -0.48438        0.39062        0.00000
 BRILLOUIN|    30           0.00195       -0.48438        0.42188        0.00000
 BRILLOUIN|    31           0.00195       -0.48438        0.45312        0.00000
 BRILLOUIN|    32           0.00195       -0.48438        0.48438        0.00000
 BRILLOUIN|    33           0.00195       -0.45312       -0.48438        0.00000
 BRILLOUIN|    34           0.00195       -0.45312       -0.45312        0.00000
 BRILLOUIN|    35           0.00195       -0.45312       -0.42188        0.00000
 BRILLOUIN|    36           0.00195       -0.45312       -0.39062        0.00000
 BRILLOUIN|    37           0.00195       -0.45312       -0.35938        0.00000
 BRILLOUIN|    38           0.00195       -0.45312       -0.32812        0.00000
 BRILLOUIN|    39           0.00195       -0.45312       -0.29688        0.00000
 BRILLOUIN|    40           0.00195       -0.45312       -0.26562        0.00000
 BRILLOUIN|    41           0.00195       -0.45312       -0.23438        0.00000
 BRILLOUIN|    42           0.00195       -0.45312       -0.20312        0.00000
 BRILLOUIN|    43           0.00195       -0.45312       -0.17188        0.00000
 BRILLOUIN|    44           0.00195       -0.45312       -0.14062        0.00000
 BRILLOUIN|    45           0.00195       -0.45312       -0.10938        0.00000
 BRILLOUIN|    46           0.00195       -0.45312       -0.07812        0.00000
 BRILLOUIN|    47           0.00195       -0.45312       -0.04688        0.00000
 BRILLOUIN|    48           0.00195       -0.45312       -0.01562        0.00000
 BRILLOUIN|    49           0.00195       -0.45312        0.01562        0.00000
 BRILLOUIN|    50           0.00195       -0.45312        0.04688        0.00000
 BRILLOUIN|    51           0.00195       -0.45312        0.07812        0.00000
 BRILLOUIN|    52           0.00195       -0.45312        0.10938        0.00000
 BRILLOUIN|    53           0.00195       -0.45312        0.14062        0.00000
 BRILLOUIN|    54           0.00195       -0.45312        0.17188        0.00000
 BRILLOUIN|    55           0.00195       -0.45312        0.20312        0.00000
 BRILLOUIN|    56           0.00195       -0.45312        0.23438        0.00000
 BRILLOUIN|    57           0.00195       -0.45312        0.26562        0.00000
 BRILLOUIN|    58           0.00195       -0.45312        0.29688        0.00000
 BRILLOUIN|    59           0.00195       -0.45312        0.32812        0.00000
 BRILLOUIN|    60           0.00195       -0.45312        0.35938        0.00000
 BRILLOUIN|    61           0.00195       -0.45312        0.39062        0.00000
 BRILLOUIN|    62           0.00195       -0.45312        0.42188        0.00000
 BRILLOUIN|    63           0.00195       -0.45312        0.45312        0.00000
 BRILLOUIN|    64           0.00195       -0.45312        0.48438        0.00000
 BRILLOUIN|    65           0.00195       -0.42188       -0.48438        0.00000
 BRILLOUIN|    66           0.00195       -0.42188       -0.45312        0.00000
 BRILLOUIN|    67           0.00195       -0.42188       -0.42188        0.00000
 BRILLOUIN|    68           0.00195       -0.42188       -0.39062        0.00000
 BRILLOUIN|    69           0.00195       -0.42188       -0.35938        0.00000
 BRILLOUIN|    70           0.00195       -0.42188       -0.32812        0.00000
 BRILLOUIN|    71           0.00195       -0.42188       -0.29688        0.00000
 BRILLOUIN|    72           0.00195       -0.42188       -0.26562        0.00000
 BRILLOUIN|    73           0.00195       -0.42188       -0.23438        0.00000
 BRILLOUIN|    74           0.00195       -0.42188       -0.20312        0.00000
 BRILLOUIN|    75           0.00195       -0.42188       -0.17188        0.00000
 BRILLOUIN|    76           0.00195       -0.42188       -0.14062        0.00000
 BRILLOUIN|    77           0.00195       -0.42188       -0.10938        0.00000
 BRILLOUIN|    78           0.00195       -0.42188       -0.07812        0.00000
 BRILLOUIN|    79           0.00195       -0.42188       -0.04688        0.00000
 BRILLOUIN|    80           0.00195       -0.42188       -0.01562        0.00000
 BRILLOUIN|    81           0.00195       -0.42188        0.01562        0.00000
 BRILLOUIN|    82           0.00195       -0.42188        0.04688        0.00000
 BRILLOUIN|    83           0.00195       -0.42188        0.07812        0.00000
 BRILLOUIN|    84           0.00195       -0.42188        0.10938        0.00000
 BRILLOUIN|    85           0.00195       -0.42188        0.14062        0.00000
 BRILLOUIN|    86           0.00195       -0.42188        0.17188        0.00000
 BRILLOUIN|    87           0.00195       -0.42188        0.20312        0.00000
 BRILLOUIN|    88           0.00195       -0.42188        0.23438        0.00000
 BRILLOUIN|    89           0.00195       -0.42188        0.26562        0.00000
 BRILLOUIN|    90           0.00195       -0.42188        0.29688        0.00000
 BRILLOUIN|    91           0.00195       -0.42188        0.32812        0.00000
 BRILLOUIN|    92           0.00195       -0.42188        0.35938        0.00000
 BRILLOUIN|    93           0.00195       -0.42188        0.39062        0.00000
 BRILLOUIN|    94           0.00195       -0.42188        0.42188        0.00000
 BRILLOUIN|    95           0.00195       -0.42188        0.45312        0.00000
 BRILLOUIN|    96           0.00195       -0.42188        0.48438        0.00000
 BRILLOUIN|    97           0.00195       -0.39062       -0.48438        0.00000
 BRILLOUIN|    98           0.00195       -0.39062       -0.45312        0.00000
 BRILLOUIN|    99           0.00195       -0.39062       -0.42188        0.00000
 BRILLOUIN|   100           0.00195       -0.39062       -0.39062        0.00000
 BRILLOUIN|   101           0.00195       -0.39062       -0.35938        0.00000
 BRILLOUIN|   102           0.00195       -0.39062       -0.32812        0.00000
 BRILLOUIN|   103           0.00195       -0.39062       -0.29688        0.00000
 BRILLOUIN|   104           0.00195       -0.39062       -0.26562        0.00000
 BRILLOUIN|   105           0.00195       -0.39062       -0.23438        0.00000
 BRILLOUIN|   106           0.00195       -0.39062       -0.20312        0.00000
 BRILLOUIN|   107           0.00195       -0.39062       -0.17188        0.00000
 BRILLOUIN|   108           0.00195       -0.39062       -0.14062        0.00000
 BRILLOUIN|   109           0.00195       -0.39062       -0.10938        0.00000
 BRILLOUIN|   110           0.00195       -0.39062       -0.07812        0.00000
 BRILLOUIN|   111           0.00195       -0.39062       -0.04688        0.00000
 BRILLOUIN|   112           0.00195       -0.39062       -0.01562        0.00000
 BRILLOUIN|   113           0.00195       -0.39062        0.01562        0.00000
 BRILLOUIN|   114           0.00195       -0.39062        0.04688        0.00000
 BRILLOUIN|   115           0.00195       -0.39062        0.07812        0.00000
 BRILLOUIN|   116           0.00195       -0.39062        0.10938        0.00000
 BRILLOUIN|   117           0.00195       -0.39062        0.14062        0.00000
 BRILLOUIN|   118           0.00195       -0.39062        0.17188        0.00000
 BRILLOUIN|   119           0.00195       -0.39062        0.20312        0.00000
 BRILLOUIN|   120           0.00195       -0.39062        0.23438        0.00000
 BRILLOUIN|   121           0.00195       -0.39062        0.26562        0.00000
 BRILLOUIN|   122           0.00195       -0.39062        0.29688        0.00000
 BRILLOUIN|   123           0.00195       -0.39062        0.32812        0.00000
 BRILLOUIN|   124           0.00195       -0.39062        0.35938        0.00000
 BRILLOUIN|   125           0.00195       -0.39062        0.39062        0.00000
 BRILLOUIN|   126           0.00195       -0.39062        0.42188        0.00000
 BRILLOUIN|   127           0.00195       -0.39062        0.45312        0.00000
 BRILLOUIN|   128           0.00195       -0.39062        0.48438        0.00000
 BRILLOUIN|   129           0.00195       -0.35938       -0.48438        0.00000
 BRILLOUIN|   130           0.00195       -0.35938       -0.45312        0.00000
 BRILLOUIN|   131           0.00195       -0.35938       -0.42188        0.00000
 BRILLOUIN|   132           0.00195       -0.35938       -0.39062        0.00000
 BRILLOUIN|   133           0.00195       -0.35938       -0.35938        0.00000
 BRILLOUIN|   134           0.00195       -0.35938       -0.32812        0.00000
 BRILLOUIN|   135           0.00195       -0.35938       -0.29688        0.00000
 BRILLOUIN|   136           0.00195       -0.35938       -0.26562        0.00000
 BRILLOUIN|   137           0.00195       -0.35938       -0.23438        0.00000
 BRILLOUIN|   138           0.00195       -0.35938       -0.20312        0.00000
 BRILLOUIN|   139           0.00195       -0.35938       -0.17188        0.00000
 BRILLOUIN|   140           0.00195       -0.35938       -0.14062        0.00000
 BRILLOUIN|   141           0.00195       -0.35938       -0.10938        0.00000
 BRILLOUIN|   142           0.00195       -0.35938       -0.07812        0.00000
 BRILLOUIN|   143           0.00195       -0.35938       -0.04688        0.00000
 BRILLOUIN|   144           0.00195       -0.35938       -0.01562        0.00000
 BRILLOUIN|   145           0.00195       -0.35938        0.01562        0.00000
 BRILLOUIN|   146           0.00195       -0.35938        0.04688        0.00000
 BRILLOUIN|   147           0.00195       -0.35938        0.07812        0.00000
 BRILLOUIN|   148           0.00195       -0.35938        0.10938        0.00000
 BRILLOUIN|   149           0.00195       -0.35938        0.14062        0.00000
 BRILLOUIN|   150           0.00195       -0.35938        0.17188        0.00000
 BRILLOUIN|   151           0.00195       -0.35938        0.20312        0.00000
 BRILLOUIN|   152           0.00195       -0.35938        0.23438        0.00000
 BRILLOUIN|   153           0.00195       -0.35938        0.26562        0.00000
 BRILLOUIN|   154           0.00195       -0.35938        0.29688        0.00000
 BRILLOUIN|   155           0.00195       -0.35938        0.32812        0.00000
 BRILLOUIN|   156           0.00195       -0.35938        0.35938        0.00000
 BRILLOUIN|   157           0.00195       -0.35938        0.39062        0.00000
 BRILLOUIN|   158           0.00195       -0.35938        0.42188        0.00000
 BRILLOUIN|   159           0.00195       -0.35938        0.45312        0.00000
 BRILLOUIN|   160           0.00195       -0.35938        0.48438        0.00000
 BRILLOUIN|   161           0.00195       -0.32812       -0.48438        0.00000
 BRILLOUIN|   162           0.00195       -0.32812       -0.45312        0.00000
 BRILLOUIN|   163           0.00195       -0.32812       -0.42188        0.00000
 BRILLOUIN|   164           0.00195       -0.32812       -0.39062        0.00000
 BRILLOUIN|   165           0.00195       -0.32812       -0.35938        0.00000
 BRILLOUIN|   166           0.00195       -0.32812       -0.32812        0.00000
 BRILLOUIN|   167           0.00195       -0.32812       -0.29688        0.00000
 BRILLOUIN|   168           0.00195       -0.32812       -0.26562        0.00000
 BRILLOUIN|   169           0.00195       -0.32812       -0.23438        0.00000
 BRILLOUIN|   170           0.00195       -0.32812       -0.20312        0.00000
 BRILLOUIN|   171           0.00195       -0.32812       -0.17188        0.00000
 BRILLOUIN|   172           0.00195       -0.32812       -0.14062        0.00000
 BRILLOUIN|   173           0.00195       -0.32812       -0.10938        0.00000
 BRILLOUIN|   174           0.00195       -0.32812       -0.07812        0.00000
 BRILLOUIN|   175           0.00195       -0.32812       -0.04688        0.00000
 BRILLOUIN|   176           0.00195       -0.32812       -0.01562        0.00000
 BRILLOUIN|   177           0.00195       -0.32812        0.01562        0.00000
 BRILLOUIN|   178           0.00195       -0.32812        0.04688        0.00000
 BRILLOUIN|   179           0.00195       -0.32812        0.07812        0.00000
 BRILLOUIN|   180           0.00195       -0.32812        0.10938        0.00000
 BRILLOUIN|   181           0.00195       -0.32812        0.14062        0.00000
 BRILLOUIN|   182           0.00195       -0.32812        0.17188        0.00000
 BRILLOUIN|   183           0.00195       -0.32812        0.20312        0.00000
 BRILLOUIN|   184           0.00195       -0.32812        0.23438        0.00000
 BRILLOUIN|   185           0.00195       -0.32812        0.26562        0.00000
 BRILLOUIN|   186           0.00195       -0.32812        0.29688        0.00000
 BRILLOUIN|   187           0.00195       -0.32812        0.32812        0.00000
 BRILLOUIN|   188           0.00195       -0.32812        0.35938        0.00000
 BRILLOUIN|   189           0.00195       -0.32812        0.39062        0.00000
 BRILLOUIN|   190           0.00195       -0.32812        0.42188        0.00000
 BRILLOUIN|   191           0.00195       -0.32812        0.45312        0.00000
 BRILLOUIN|   192           0.00195       -0.32812        0.48438        0.00000
 BRILLOUIN|   193           0.00195       -0.29688       -0.48438        0.00000
 BRILLOUIN|   194           0.00195       -0.29688       -0.45312        0.00000
 BRILLOUIN|   195           0.00195       -0.29688       -0.42188        0.00000
 BRILLOUIN|   196           0.00195       -0.29688       -0.39062        0.00000
 BRILLOUIN|   197           0.00195       -0.29688       -0.35938        0.00000
 BRILLOUIN|   198           0.00195       -0.29688       -0.32812        0.00000
 BRILLOUIN|   199           0.00195       -0.29688       -0.29688        0.00000
 BRILLOUIN|   200           0.00195       -0.29688       -0.26562        0.00000
 BRILLOUIN|   201           0.00195       -0.29688       -0.23438        0.00000
 BRILLOUIN|   202           0.00195       -0.29688       -0.20312        0.00000
 BRILLOUIN|   203           0.00195       -0.29688       -0.17188        0.00000
 BRILLOUIN|   204           0.00195       -0.29688       -0.14062        0.00000
 BRILLOUIN|   205           0.00195       -0.29688       -0.10938        0.00000
 BRILLOUIN|   206           0.00195       -0.29688       -0.07812        0.00000
 BRILLOUIN|   207           0.00195       -0.29688       -0.04688        0.00000
 BRILLOUIN|   208           0.00195       -0.29688       -0.01562        0.00000
 BRILLOUIN|   209           0.00195       -0.29688        0.01562        0.00000
 BRILLOUIN|   210           0.00195       -0.29688        0.04688        0.00000
 BRILLOUIN|   211           0.00195       -0.29688        0.07812        0.00000
 BRILLOUIN|   212           0.00195       -0.29688        0.10938        0.00000
 BRILLOUIN|   213           0.00195       -0.29688        0.14062        0.00000
 BRILLOUIN|   214           0.00195       -0.29688        0.17188        0.00000
 BRILLOUIN|   215           0.00195       -0.29688        0.20312        0.00000
 BRILLOUIN|   216           0.00195       -0.29688        0.23438        0.00000
 BRILLOUIN|   217           0.00195       -0.29688        0.26562        0.00000
 BRILLOUIN|   218           0.00195       -0.29688        0.29688        0.00000
 BRILLOUIN|   219           0.00195       -0.29688        0.32812        0.00000
 BRILLOUIN|   220           0.00195       -0.29688        0.35938        0.00000
 BRILLOUIN|   221           0.00195       -0.29688        0.39062        0.00000
 BRILLOUIN|   222           0.00195       -0.29688        0.42188        0.00000
 BRILLOUIN|   223           0.00195       -0.29688        0.45312        0.00000
 BRILLOUIN|   224           0.00195       -0.29688        0.48438        0.00000
 BRILLOUIN|   225           0.00195       -0.26562       -0.48438        0.00000
 BRILLOUIN|   226           0.00195       -0.26562       -0.45312        0.00000
 BRILLOUIN|   227           0.00195       -0.26562       -0.42188        0.00000
 BRILLOUIN|   228           0.00195       -0.26562       -0.39062        0.00000
 BRILLOUIN|   229           0.00195       -0.26562       -0.35938        0.00000
 BRILLOUIN|   230           0.00195       -0.26562       -0.32812        0.00000
 BRILLOUIN|   231           0.00195       -0.26562       -0.29688        0.00000
 BRILLOUIN|   232           0.00195       -0.26562       -0.26562        0.00000
 BRILLOUIN|   233           0.00195       -0.26562       -0.23438        0.00000
 BRILLOUIN|   234           0.00195       -0.26562       -0.20312        0.00000
 BRILLOUIN|   235           0.00195       -0.26562       -0.17188        0.00000
 BRILLOUIN|   236           0.00195       -0.26562       -0.14062        0.00000
 BRILLOUIN|   237           0.00195       -0.26562       -0.10938        0.00000
 BRILLOUIN|   238           0.00195       -0.26562       -0.07812        0.00000
 BRILLOUIN|   239           0.00195       -0.26562       -0.04688        0.00000
 BRILLOUIN|   240           0.00195       -0.26562       -0.01562        0.00000
 BRILLOUIN|   241           0.00195       -0.26562        0.01562        0.00000
 BRILLOUIN|   242           0.00195       -0.26562        0.04688        0.00000
 BRILLOUIN|   243           0.00195       -0.26562        0.07812        0.00000
 BRILLOUIN|   244           0.00195       -0.26562        0.10938        0.00000
 BRILLOUIN|   245           0.00195       -0.26562        0.14062        0.00000
 BRILLOUIN|   246           0.00195       -0.26562        0.17188        0.00000
 BRILLOUIN|   247           0.00195       -0.26562        0.20312        0.00000
 BRILLOUIN|   248           0.00195       -0.26562        0.23438        0.00000
 BRILLOUIN|   249           0.00195       -0.26562        0.26562        0.00000
 BRILLOUIN|   250           0.00195       -0.26562        0.29688        0.00000
 BRILLOUIN|   251           0.00195       -0.26562        0.32812        0.00000
 BRILLOUIN|   252           0.00195       -0.26562        0.35938        0.00000
 BRILLOUIN|   253           0.00195       -0.26562        0.39062        0.00000
 BRILLOUIN|   254           0.00195       -0.26562        0.42188        0.00000
 BRILLOUIN|   255           0.00195       -0.26562        0.45312        0.00000
 BRILLOUIN|   256           0.00195       -0.26562        0.48438        0.00000
 BRILLOUIN|   257           0.00195       -0.23438       -0.48438        0.00000
 BRILLOUIN|   258           0.00195       -0.23438       -0.45312        0.00000
 BRILLOUIN|   259           0.00195       -0.23438       -0.42188        0.00000
 BRILLOUIN|   260           0.00195       -0.23438       -0.39062        0.00000
 BRILLOUIN|   261           0.00195       -0.23438       -0.35938        0.00000
 BRILLOUIN|   262           0.00195       -0.23438       -0.32812        0.00000
 BRILLOUIN|   263           0.00195       -0.23438       -0.29688        0.00000
 BRILLOUIN|   264           0.00195       -0.23438       -0.26562        0.00000
 BRILLOUIN|   265           0.00195       -0.23438       -0.23438        0.00000
 BRILLOUIN|   266           0.00195       -0.23438       -0.20312        0.00000
 BRILLOUIN|   267           0.00195       -0.23438       -0.17188        0.00000
 BRILLOUIN|   268           0.00195       -0.23438       -0.14062        0.00000
 BRILLOUIN|   269           0.00195       -0.23438       -0.10938        0.00000
 BRILLOUIN|   270           0.00195       -0.23438       -0.07812        0.00000
 BRILLOUIN|   271           0.00195       -0.23438       -0.04688        0.00000
 BRILLOUIN|   272           0.00195       -0.23438       -0.01562        0.00000
 BRILLOUIN|   273           0.00195       -0.23438        0.01562        0.00000
 BRILLOUIN|   274           0.00195       -0.23438        0.04688        0.00000
 BRILLOUIN|   275           0.00195       -0.23438        0.07812        0.00000
 BRILLOUIN|   276           0.00195       -0.23438        0.10938        0.00000
 BRILLOUIN|   277           0.00195       -0.23438        0.14062        0.00000
 BRILLOUIN|   278           0.00195       -0.23438        0.17188        0.00000
 BRILLOUIN|   279           0.00195       -0.23438        0.20312        0.00000
 BRILLOUIN|   280           0.00195       -0.23438        0.23438        0.00000
 BRILLOUIN|   281           0.00195       -0.23438        0.26562        0.00000
 BRILLOUIN|   282           0.00195       -0.23438        0.29688        0.00000
 BRILLOUIN|   283           0.00195       -0.23438        0.32812        0.00000
 BRILLOUIN|   284           0.00195       -0.23438        0.35938        0.00000
 BRILLOUIN|   285           0.00195       -0.23438        0.39062        0.00000
 BRILLOUIN|   286           0.00195       -0.23438        0.42188        0.00000
 BRILLOUIN|   287           0.00195       -0.23438        0.45312        0.00000
 BRILLOUIN|   288           0.00195       -0.23438        0.48438        0.00000
 BRILLOUIN|   289           0.00195       -0.20312       -0.48438        0.00000
 BRILLOUIN|   290           0.00195       -0.20312       -0.45312        0.00000
 BRILLOUIN|   291           0.00195       -0.20312       -0.42188        0.00000
 BRILLOUIN|   292           0.00195       -0.20312       -0.39062        0.00000
 BRILLOUIN|   293           0.00195       -0.20312       -0.35938        0.00000
 BRILLOUIN|   294           0.00195       -0.20312       -0.32812        0.00000
 BRILLOUIN|   295           0.00195       -0.20312       -0.29688        0.00000
 BRILLOUIN|   296           0.00195       -0.20312       -0.26562        0.00000
 BRILLOUIN|   297           0.00195       -0.20312       -0.23438        0.00000
 BRILLOUIN|   298           0.00195       -0.20312       -0.20312        0.00000
 BRILLOUIN|   299           0.00195       -0.20312       -0.17188        0.00000
 BRILLOUIN|   300           0.00195       -0.20312       -0.14062        0.00000
 BRILLOUIN|   301           0.00195       -0.20312       -0.10938        0.00000
 BRILLOUIN|   302           0.00195       -0.20312       -0.07812        0.00000
 BRILLOUIN|   303           0.00195       -0.20312       -0.04688        0.00000
 BRILLOUIN|   304           0.00195       -0.20312       -0.01562        0.00000
 BRILLOUIN|   305           0.00195       -0.20312        0.01562        0.00000
 BRILLOUIN|   306           0.00195       -0.20312        0.04688        0.00000
 BRILLOUIN|   307           0.00195       -0.20312        0.07812        0.00000
 BRILLOUIN|   308           0.00195       -0.20312        0.10938        0.00000
 BRILLOUIN|   309           0.00195       -0.20312        0.14062        0.00000
 BRILLOUIN|   310           0.00195       -0.20312        0.17188        0.00000
 BRILLOUIN|   311           0.00195       -0.20312        0.20312        0.00000
 BRILLOUIN|   312           0.00195       -0.20312        0.23438        0.00000
 BRILLOUIN|   313           0.00195       -0.20312        0.26562        0.00000
 BRILLOUIN|   314           0.00195       -0.20312        0.29688        0.00000
 BRILLOUIN|   315           0.00195       -0.20312        0.32812        0.00000
 BRILLOUIN|   316           0.00195       -0.20312        0.35938        0.00000
 BRILLOUIN|   317           0.00195       -0.20312        0.39062        0.00000
 BRILLOUIN|   318           0.00195       -0.20312        0.42188        0.00000
 BRILLOUIN|   319           0.00195       -0.20312        0.45312        0.00000
 BRILLOUIN|   320           0.00195       -0.20312        0.48438        0.00000
 BRILLOUIN|   321           0.00195       -0.17188       -0.48438        0.00000
 BRILLOUIN|   322           0.00195       -0.17188       -0.45312        0.00000
 BRILLOUIN|   323           0.00195       -0.17188       -0.42188        0.00000
 BRILLOUIN|   324           0.00195       -0.17188       -0.39062        0.00000
 BRILLOUIN|   325           0.00195       -0.17188       -0.35938        0.00000
 BRILLOUIN|   326           0.00195       -0.17188       -0.32812        0.00000
 BRILLOUIN|   327           0.00195       -0.17188       -0.29688        0.00000
 BRILLOUIN|   328           0.00195       -0.17188       -0.26562        0.00000
 BRILLOUIN|   329           0.00195       -0.17188       -0.23438        0.00000
 BRILLOUIN|   330           0.00195       -0.17188       -0.20312        0.00000
 BRILLOUIN|   331           0.00195       -0.17188       -0.17188        0.00000
 BRILLOUIN|   332           0.00195       -0.17188       -0.14062        0.00000
 BRILLOUIN|   333           0.00195       -0.17188       -0.10938        0.00000
 BRILLOUIN|   334           0.00195       -0.17188       -0.07812        0.00000
 BRILLOUIN|   335           0.00195       -0.17188       -0.04688        0.00000
 BRILLOUIN|   336           0.00195       -0.17188       -0.01562        0.00000
 BRILLOUIN|   337           0.00195       -0.17188        0.01562        0.00000
 BRILLOUIN|   338           0.00195       -0.17188        0.04688        0.00000
 BRILLOUIN|   339           0.00195       -0.17188        0.07812        0.00000
 BRILLOUIN|   340           0.00195       -0.17188        0.10938        0.00000
 BRILLOUIN|   341           0.00195       -0.17188        0.14062        0.00000
 BRILLOUIN|   342           0.00195       -0.17188        0.17188        0.00000
 BRILLOUIN|   343           0.00195       -0.17188        0.20312        0.00000
 BRILLOUIN|   344           0.00195       -0.17188        0.23438        0.00000
 BRILLOUIN|   345           0.00195       -0.17188        0.26562        0.00000
 BRILLOUIN|   346           0.00195       -0.17188        0.29688        0.00000
 BRILLOUIN|   347           0.00195       -0.17188        0.32812        0.00000
 BRILLOUIN|   348           0.00195       -0.17188        0.35938        0.00000
 BRILLOUIN|   349           0.00195       -0.17188        0.39062        0.00000
 BRILLOUIN|   350           0.00195       -0.17188        0.42188        0.00000
 BRILLOUIN|   351           0.00195       -0.17188        0.45312        0.00000
 BRILLOUIN|   352           0.00195       -0.17188        0.48438        0.00000
 BRILLOUIN|   353           0.00195       -0.14062       -0.48438        0.00000
 BRILLOUIN|   354           0.00195       -0.14062       -0.45312        0.00000
 BRILLOUIN|   355           0.00195       -0.14062       -0.42188        0.00000
 BRILLOUIN|   356           0.00195       -0.14062       -0.39062        0.00000
 BRILLOUIN|   357           0.00195       -0.14062       -0.35938        0.00000
 BRILLOUIN|   358           0.00195       -0.14062       -0.32812        0.00000
 BRILLOUIN|   359           0.00195       -0.14062       -0.29688        0.00000
 BRILLOUIN|   360           0.00195       -0.14062       -0.26562        0.00000
 BRILLOUIN|   361           0.00195       -0.14062       -0.23438        0.00000
 BRILLOUIN|   362           0.00195       -0.14062       -0.20312        0.00000
 BRILLOUIN|   363           0.00195       -0.14062       -0.17188        0.00000
 BRILLOUIN|   364           0.00195       -0.14062       -0.14062        0.00000
 BRILLOUIN|   365           0.00195       -0.14062       -0.10938        0.00000
 BRILLOUIN|   366           0.00195       -0.14062       -0.07812        0.00000
 BRILLOUIN|   367           0.00195       -0.14062       -0.04688        0.00000
 BRILLOUIN|   368           0.00195       -0.14062       -0.01562        0.00000
 BRILLOUIN|   369           0.00195       -0.14062        0.01562        0.00000
 BRILLOUIN|   370           0.00195       -0.14062        0.04688        0.00000
 BRILLOUIN|   371           0.00195       -0.14062        0.07812        0.00000
 BRILLOUIN|   372           0.00195       -0.14062        0.10938        0.00000
 BRILLOUIN|   373           0.00195       -0.14062        0.14062        0.00000
 BRILLOUIN|   374           0.00195       -0.14062        0.17188        0.00000
 BRILLOUIN|   375           0.00195       -0.14062        0.20312        0.00000
 BRILLOUIN|   376           0.00195       -0.14062        0.23438        0.00000
 BRILLOUIN|   377           0.00195       -0.14062        0.26562        0.00000
 BRILLOUIN|   378           0.00195       -0.14062        0.29688        0.00000
 BRILLOUIN|   379           0.00195       -0.14062        0.32812        0.00000
 BRILLOUIN|   380           0.00195       -0.14062        0.35938        0.00000
 BRILLOUIN|   381           0.00195       -0.14062        0.39062        0.00000
 BRILLOUIN|   382           0.00195       -0.14062        0.42188        0.00000
 BRILLOUIN|   383           0.00195       -0.14062        0.45312        0.00000
 BRILLOUIN|   384           0.00195       -0.14062        0.48438        0.00000
 BRILLOUIN|   385           0.00195       -0.10938       -0.48438        0.00000
 BRILLOUIN|   386           0.00195       -0.10938       -0.45312        0.00000
 BRILLOUIN|   387           0.00195       -0.10938       -0.42188        0.00000
 BRILLOUIN|   388           0.00195       -0.10938       -0.39062        0.00000
 BRILLOUIN|   389           0.00195       -0.10938       -0.35938        0.00000
 BRILLOUIN|   390           0.00195       -0.10938       -0.32812        0.00000
 BRILLOUIN|   391           0.00195       -0.10938       -0.29688        0.00000
 BRILLOUIN|   392           0.00195       -0.10938       -0.26562        0.00000
 BRILLOUIN|   393           0.00195       -0.10938       -0.23438        0.00000
 BRILLOUIN|   394           0.00195       -0.10938       -0.20312        0.00000
 BRILLOUIN|   395           0.00195       -0.10938       -0.17188        0.00000
 BRILLOUIN|   396           0.00195       -0.10938       -0.14062        0.00000
 BRILLOUIN|   397           0.00195       -0.10938       -0.10938        0.00000
 BRILLOUIN|   398           0.00195       -0.10938       -0.07812        0.00000
 BRILLOUIN|   399           0.00195       -0.10938       -0.04688        0.00000
 BRILLOUIN|   400           0.00195       -0.10938       -0.01562        0.00000
 BRILLOUIN|   401           0.00195       -0.10938        0.01562        0.00000
 BRILLOUIN|   402           0.00195       -0.10938        0.04688        0.00000
 BRILLOUIN|   403           0.00195       -0.10938        0.07812        0.00000
 BRILLOUIN|   404           0.00195       -0.10938        0.10938        0.00000
 BRILLOUIN|   405           0.00195       -0.10938        0.14062        0.00000
 BRILLOUIN|   406           0.00195       -0.10938        0.17188        0.00000
 BRILLOUIN|   407           0.00195       -0.10938        0.20312        0.00000
 BRILLOUIN|   408           0.00195       -0.10938        0.23438        0.00000
 BRILLOUIN|   409           0.00195       -0.10938        0.26562        0.00000
 BRILLOUIN|   410           0.00195       -0.10938        0.29688        0.00000
 BRILLOUIN|   411           0.00195       -0.10938        0.32812        0.00000
 BRILLOUIN|   412           0.00195       -0.10938        0.35938        0.00000
 BRILLOUIN|   413           0.00195       -0.10938        0.39062        0.00000
 BRILLOUIN|   414           0.00195       -0.10938        0.42188        0.00000
 BRILLOUIN|   415           0.00195       -0.10938        0.45312        0.00000
 BRILLOUIN|   416           0.00195       -0.10938        0.48438        0.00000
 BRILLOUIN|   417           0.00195       -0.07812       -0.48438        0.00000
 BRILLOUIN|   418           0.00195       -0.07812       -0.45312        0.00000
 BRILLOUIN|   419           0.00195       -0.07812       -0.42188        0.00000
 BRILLOUIN|   420           0.00195       -0.07812       -0.39062        0.00000
 BRILLOUIN|   421           0.00195       -0.07812       -0.35938        0.00000
 BRILLOUIN|   422           0.00195       -0.07812       -0.32812        0.00000
 BRILLOUIN|   423           0.00195       -0.07812       -0.29688        0.00000
 BRILLOUIN|   424           0.00195       -0.07812       -0.26562        0.00000
 BRILLOUIN|   425           0.00195       -0.07812       -0.23438        0.00000
 BRILLOUIN|   426           0.00195       -0.07812       -0.20312        0.00000
 BRILLOUIN|   427           0.00195       -0.07812       -0.17188        0.00000
 BRILLOUIN|   428           0.00195       -0.07812       -0.14062        0.00000
 BRILLOUIN|   429           0.00195       -0.07812       -0.10938        0.00000
 BRILLOUIN|   430           0.00195       -0.07812       -0.07812        0.00000
 BRILLOUIN|   431           0.00195       -0.07812       -0.04688        0.00000
 BRILLOUIN|   432           0.00195       -0.07812       -0.01562        0.00000
 BRILLOUIN|   433           0.00195       -0.07812        0.01562        0.00000
 BRILLOUIN|   434           0.00195       -0.07812        0.04688        0.00000
 BRILLOUIN|   435           0.00195       -0.07812        0.07812        0.00000
 BRILLOUIN|   436           0.00195       -0.07812        0.10938        0.00000
 BRILLOUIN|   437           0.00195       -0.07812        0.14062        0.00000
 BRILLOUIN|   438           0.00195       -0.07812        0.17188        0.00000
 BRILLOUIN|   439           0.00195       -0.07812        0.20312        0.00000
 BRILLOUIN|   440           0.00195       -0.07812        0.23438        0.00000
 BRILLOUIN|   441           0.00195       -0.07812        0.26562        0.00000
 BRILLOUIN|   442           0.00195       -0.07812        0.29688        0.00000
 BRILLOUIN|   443           0.00195       -0.07812        0.32812        0.00000
 BRILLOUIN|   444           0.00195       -0.07812        0.35938        0.00000
 BRILLOUIN|   445           0.00195       -0.07812        0.39062        0.00000
 BRILLOUIN|   446           0.00195       -0.07812        0.42188        0.00000
 BRILLOUIN|   447           0.00195       -0.07812        0.45312        0.00000
 BRILLOUIN|   448           0.00195       -0.07812        0.48438        0.00000
 BRILLOUIN|   449           0.00195       -0.04688       -0.48438        0.00000
 BRILLOUIN|   450           0.00195       -0.04688       -0.45312        0.00000
 BRILLOUIN|   451           0.00195       -0.04688       -0.42188        0.00000
 BRILLOUIN|   452           0.00195       -0.04688       -0.39062        0.00000
 BRILLOUIN|   453           0.00195       -0.04688       -0.35938        0.00000
 BRILLOUIN|   454           0.00195       -0.04688       -0.32812        0.00000
 BRILLOUIN|   455           0.00195       -0.04688       -0.29688        0.00000
 BRILLOUIN|   456           0.00195       -0.04688       -0.26562        0.00000
 BRILLOUIN|   457           0.00195       -0.04688       -0.23438        0.00000
 BRILLOUIN|   458           0.00195       -0.04688       -0.20312        0.00000
 BRILLOUIN|   459           0.00195       -0.04688       -0.17188        0.00000
 BRILLOUIN|   460           0.00195       -0.04688       -0.14062        0.00000
 BRILLOUIN|   461           0.00195       -0.04688       -0.10938        0.00000
 BRILLOUIN|   462           0.00195       -0.04688       -0.07812        0.00000
 BRILLOUIN|   463           0.00195       -0.04688       -0.04688        0.00000
 BRILLOUIN|   464           0.00195       -0.04688       -0.01562        0.00000
 BRILLOUIN|   465           0.00195       -0.04688        0.01562        0.00000
 BRILLOUIN|   466           0.00195       -0.04688        0.04688        0.00000
 BRILLOUIN|   467           0.00195       -0.04688        0.07812        0.00000
 BRILLOUIN|   468           0.00195       -0.04688        0.10938        0.00000
 BRILLOUIN|   469           0.00195       -0.04688        0.14062        0.00000
 BRILLOUIN|   470           0.00195       -0.04688        0.17188        0.00000
 BRILLOUIN|   471           0.00195       -0.04688        0.20312        0.00000
 BRILLOUIN|   472           0.00195       -0.04688        0.23438        0.00000
 BRILLOUIN|   473           0.00195       -0.04688        0.26562        0.00000
 BRILLOUIN|   474           0.00195       -0.04688        0.29688        0.00000
 BRILLOUIN|   475           0.00195       -0.04688        0.32812        0.00000
 BRILLOUIN|   476           0.00195       -0.04688        0.35938        0.00000
 BRILLOUIN|   477           0.00195       -0.04688        0.39062        0.00000
 BRILLOUIN|   478           0.00195       -0.04688        0.42188        0.00000
 BRILLOUIN|   479           0.00195       -0.04688        0.45312        0.00000
 BRILLOUIN|   480           0.00195       -0.04688        0.48438        0.00000
 BRILLOUIN|   481           0.00195       -0.01562       -0.48438        0.00000
 BRILLOUIN|   482           0.00195       -0.01562       -0.45312        0.00000
 BRILLOUIN|   483           0.00195       -0.01562       -0.42188        0.00000
 BRILLOUIN|   484           0.00195       -0.01562       -0.39062        0.00000
 BRILLOUIN|   485           0.00195       -0.01562       -0.35938        0.00000
 BRILLOUIN|   486           0.00195       -0.01562       -0.32812        0.00000
 BRILLOUIN|   487           0.00195       -0.01562       -0.29688        0.00000
 BRILLOUIN|   488           0.00195       -0.01562       -0.26562        0.00000
 BRILLOUIN|   489           0.00195       -0.01562       -0.23438        0.00000
 BRILLOUIN|   490           0.00195       -0.01562       -0.20312        0.00000
 BRILLOUIN|   491           0.00195       -0.01562       -0.17188        0.00000
 BRILLOUIN|   492           0.00195       -0.01562       -0.14062        0.00000
 BRILLOUIN|   493           0.00195       -0.01562       -0.10938        0.00000
 BRILLOUIN|   494           0.00195       -0.01562       -0.07812        0.00000
 BRILLOUIN|   495           0.00195       -0.01562       -0.04688        0.00000
 BRILLOUIN|   496           0.00195       -0.01562       -0.01562        0.00000
 BRILLOUIN|   497           0.00195       -0.01562        0.01562        0.00000
 BRILLOUIN|   498           0.00195       -0.01562        0.04688        0.00000
 BRILLOUIN|   499           0.00195       -0.01562        0.07812        0.00000
 BRILLOUIN|   500           0.00195       -0.01562        0.10938        0.00000
 BRILLOUIN|   501           0.00195       -0.01562        0.14062        0.00000
 BRILLOUIN|   502           0.00195       -0.01562        0.17188        0.00000
 BRILLOUIN|   503           0.00195       -0.01562        0.20312        0.00000
 BRILLOUIN|   504           0.00195       -0.01562        0.23438        0.00000
 BRILLOUIN|   505           0.00195       -0.01562        0.26562        0.00000
 BRILLOUIN|   506           0.00195       -0.01562        0.29688        0.00000
 BRILLOUIN|   507           0.00195       -0.01562        0.32812        0.00000
 BRILLOUIN|   508           0.00195       -0.01562        0.35938        0.00000
 BRILLOUIN|   509           0.00195       -0.01562        0.39062        0.00000
 BRILLOUIN|   510           0.00195       -0.01562        0.42188        0.00000
 BRILLOUIN|   511           0.00195       -0.01562        0.45312        0.00000
 BRILLOUIN|   512           0.00195       -0.01562        0.48438        0.00000
 *******************************************************************************

 *******************************************************************************
 *******************************************************************************
 **                                                                           **
 **     #####                         ##              ##                      **
 **    ##   ##            ##          ##              ##                      **
 **   ##     ##                       ##            ######                    **
 **   ##     ##  ##   ##  ##   #####  ##  ##   ####   ##    #####    #####    **
 **   ##     ##  ##   ##  ##  ##      ## ##   ##      ##   ##   ##  ##   ##   **
 **   ##  ## ##  ##   ##  ##  ##      ####     ###    ##   ######   ######    **
 **    ##  ###   ##   ##  ##  ##      ## ##      ##   ##   ##       ##        **
 **     #######   #####   ##   #####  ##  ##  ####    ##    #####   ##        **
 **           ##                                                    ##        **
 **                                                                           **
 **                                                ... make the atoms dance   **
 **                                                                           **
 **            Copyright (C) by CP2K developers group (2000-2025)             **
 **                      J. Chem. Phys. 152, 194103 (2020)                    **
 **                                                                           **
 *******************************************************************************

 DFT| Spin restricted Kohn-Sham (RKS) calculation                            RKS
 DFT| Multiplicity                                                             1
 DFT| Number of spin states                                                    1
 DFT| Charge                                                                   0
 DFT| Self-interaction correction (SIC)                                       NO
 DFT| Cutoffs: density                                              1.000000E-10
 DFT|          gradient                                             1.000000E-10
 DFT|          tau                                                  1.000000E-10
 DFT|          cutoff_smoothing_range                               0.000000E+00
 DFT| XC density smoothing                                                  NONE
 DFT| XC derivatives                                                          PW

 FUNCTIONAL| PBE:
 FUNCTIONAL| J.P.Perdew, K.Burke, M.Ernzerhof, Phys. Rev. Letter, vol. 77, n 18,
 FUNCTIONAL|  pp. 3865-3868, (1996) {spin unpolarized}                          


 QS| Method:                                                                GAPW
 QS| Density plane wave grid type                        NON-SPHERICAL FULLSPACE
 QS| Number of grid levels:                                                    4
 QS| Density cutoff [a.u.]:                                                250.0
 QS| Multi grid cutoff [a.u.]: 1) grid level                               250.0
 QS|                           2) grid level                                83.3
 QS|                           3) grid level                                27.8
 QS|                           4) grid level                                 9.3
 QS| Grid level progression factor:                                          3.0
 QS| Relative density cutoff [a.u.]:                                        50.0
 QS| Interaction thresholds: eps_pgf_orb:                                1.0E-12
 QS|                         eps_filter_matrix:                          0.0E+00
 QS|                         eps_core_charge:                            1.0E-14
 QS|                         eps_rho_gspace:                             1.0E-12
 QS|                         eps_rho_rspace:                             1.0E-12
 QS|                         eps_gvg_rspace:                             1.0E-06
 QS|                         eps_ppl:                                    1.0E-02
 QS|                         eps_ppnl:                                   1.0E-08
 QS| GAPW|      One center basis from orbital basis primitives
 QS| GAPW|                   eps_fit:                                    1.0E-04
 QS| GAPW|                   eps_iso:                                    1.0E-12
 QS| GAPW|                   eps_svd:                                    1.0E-08
 QS| GAPW|                   eps_cpc:                                    1.0E-12
 QS| GAPW|   atom-r-grid: quadrature:                                     GC_LOG
 QS| GAPW|      atom-s-grid:  max l :                                          6
 QS| GAPW|      max_l_rho0 :                                                   2
 QS| GAPW|      At least one kind is NOT PAW, i.e. it has only soft AO 
 QS| GAPW|      The NOT PAW atoms are treated fully GPW


 ATOMIC KIND INFORMATION

  1. Atomic kind: W                                     Number of atoms:       1

     Orbital Basis Set                                        aug-SZV-MOLOPT-GTH

       Number of orbital shell sets:                                           1
       Number of orbital shells:                                               8
       Number of primitive Cartesian functions:                                6
       Number of Cartesian basis functions:                                   31
       Number of spherical basis functions:                                   26
       Norm type:                                                              2

       Normalised Cartesian orbitals:

                        Set   Shell   Orbital            Exponent    Coefficient

                          1       1    2s                0.074662      -0.014288
                                                         0.214446      -0.013622
                                                         0.501100      -0.158409
                                                         1.106150      -0.674409
                                                         2.893835       0.343542
                                                         3.103253       0.529378

                          1       2    3s                0.074662       0.097559
                                                         0.214446       0.068377
                                                         0.501100      -0.211692
                                                         1.106150      -0.477565
                                                         2.893835       0.569551
                                                         3.103253      -0.097470

                          1       3    4s                0.074662       0.110154
                                                         0.214446       0.032057
                                                         0.501100      -0.205812
                                                         1.106150       0.074053
                                                         2.893835       0.052359
                                                         3.103253       0.028561

                          1       4    3px               0.074662       0.000342
                                                         0.214446      -0.010443
                                                         0.501100      -0.267354
                                                         1.106150      -0.965857
                                                         2.893835      -5.556403
                                                         3.103253       6.695558
                          1       4    3py               0.074662       0.000342
                                                         0.214446      -0.010443
                                                         0.501100      -0.267354
                                                         1.106150      -0.965857
                                                         2.893835      -5.556403
                                                         3.103253       6.695558
                          1       4    3pz               0.074662       0.000342
                                                         0.214446      -0.010443
                                                         0.501100      -0.267354
                                                         1.106150      -0.965857
                                                         2.893835      -5.556403
                                                         3.103253       6.695558

                          1       5    4px               0.074662      -0.025823
                                                         0.214446      -0.106983
                                                         0.501100      -0.110188
                                                         1.106150       0.090439
                                                         2.893835       0.313766
                                                         3.103253       0.343398
                          1       5    4py               0.074662      -0.025823
                                                         0.214446      -0.106983
                                                         0.501100      -0.110188
                                                         1.106150       0.090439
                                                         2.893835       0.313766
                                                         3.103253       0.343398
                          1       5    4pz               0.074662      -0.025823
                                                         0.214446      -0.106983
                                                         0.501100      -0.110188
                                                         1.106150       0.090439
                                                         2.893835       0.313766
                                                         3.103253       0.343398

                          1       6    4dx2              0.074662       0.002139
                                                         0.214446       0.042391
                                                         0.501100       0.198591
                                                         1.106150       0.570193
                                                         2.893835       1.052039
                                                         3.103253      -0.912703
                          1       6    4dxy              0.074662       0.003705
                                                         0.214446       0.073424
                                                         0.501100       0.343970
                                                         1.106150       0.987602
                                                         2.893835       1.822186
                                                         3.103253      -1.580848
                          1       6    4dxz              0.074662       0.003705
                                                         0.214446       0.073424
                                                         0.501100       0.343970
                                                         1.106150       0.987602
                                                         2.893835       1.822186
                                                         3.103253      -1.580848
                          1       6    4dy2              0.074662       0.002139
                                                         0.214446       0.042391
                                                         0.501100       0.198591
                                                         1.106150       0.570193
                                                         2.893835       1.052039
                                                         3.103253      -0.912703
                          1       6    4dyz              0.074662       0.003705
                                                         0.214446       0.073424
                                                         0.501100       0.343970
                                                         1.106150       0.987602
                                                         2.893835       1.822186
                                                         3.103253      -1.580848
                          1       6    4dz2              0.074662       0.002139
                                                         0.214446       0.042391
                                                         0.501100       0.198591
                                                         1.106150       0.570193
                                                         2.893835       1.052039
                                                         3.103253      -0.912703

                          1       7    5dx2              0.074662      -0.005539
                                                         0.214446      -0.055672
                                                         0.501100      -0.201982
                                                         1.106150       0.147656
                                                         2.893835       0.458842
                                                         3.103253       0.902631
                          1       7    5dxy              0.074662      -0.009594
                                                         0.214446      -0.096427
                                                         0.501100      -0.349843
                                                         1.106150       0.255748
                                                         2.893835       0.794738
                                                         3.103253       1.563402
                          1       7    5dxz              0.074662      -0.009594
                                                         0.214446      -0.096427
                                                         0.501100      -0.349843
                                                         1.106150       0.255748
                                                         2.893835       0.794738
                                                         3.103253       1.563402
                          1       7    5dy2              0.074662      -0.005539
                                                         0.214446      -0.055672
                                                         0.501100      -0.201982
                                                         1.106150       0.147656
                                                         2.893835       0.458842
                                                         3.103253       0.902631
                          1       7    5dyz              0.074662      -0.009594
                                                         0.214446      -0.096427
                                                         0.501100      -0.349843
                                                         1.106150       0.255748
                                                         2.893835       0.794738
                                                         3.103253       1.563402
                          1       7    5dz2              0.074662      -0.005539
                                                         0.214446      -0.055672
                                                         0.501100      -0.201982
                                                         1.106150       0.147656
                                                         2.893835       0.458842
                                                         3.103253       0.902631

                          1       8    5fx3              0.074662       0.000325
                                                         0.214446       0.032337
                                                         0.501100       0.095319
                                                         1.106150       0.075344
                                                         2.893835       0.567697
                                                         3.103253       0.419733
                          1       8    5fx2y             0.074662       0.000727
                                                         0.214446       0.072308
                                                         0.501100       0.213140
                                                         1.106150       0.168474
                                                         2.893835       1.269409
                                                         3.103253       0.938552
                          1       8    5fx2z             0.074662       0.000727
                                                         0.214446       0.072308
                                                         0.501100       0.213140
                                                         1.106150       0.168474
                                                         2.893835       1.269409
                                                         3.103253       0.938552
                          1       8    5fxy2             0.074662       0.000727
                                                         0.214446       0.072308
                                                         0.501100       0.213140
                                                         1.106150       0.168474
                                                         2.893835       1.269409
                                                         3.103253       0.938552
                          1       8    5fxyz             0.074662       0.001260
                                                         0.214446       0.125240
                                                         0.501100       0.369169
                                                         1.106150       0.291805
                                                         2.893835       2.198681
                                                         3.103253       1.625620
                          1       8    5fxz2             0.074662       0.000727
                                                         0.214446       0.072308
                                                         0.501100       0.213140
                                                         1.106150       0.168474
                                                         2.893835       1.269409
                                                         3.103253       0.938552
                          1       8    5fy3              0.074662       0.000325
                                                         0.214446       0.032337
                                                         0.501100       0.095319
                                                         1.106150       0.075344
                                                         2.893835       0.567697
                                                         3.103253       0.419733
                          1       8    5fy2z             0.074662       0.000727
                                                         0.214446       0.072308
                                                         0.501100       0.213140
                                                         1.106150       0.168474
                                                         2.893835       1.269409
                                                         3.103253       0.938552
                          1       8    5fyz2             0.074662       0.000727
                                                         0.214446       0.072308
                                                         0.501100       0.213140
                                                         1.106150       0.168474
                                                         2.893835       1.269409
                                                         3.103253       0.938552
                          1       8    5fz3              0.074662       0.000325
                                                         0.214446       0.032337
                                                         0.501100       0.095319
                                                         1.106150       0.075344
                                                         2.893835       0.567697
                                                         3.103253       0.419733

     RI Auxiliary Basis Set             RI_aug-SZV-MOLOPT-GTH_N_RI_076_s_p_d_f_g

       Number of orbital shell sets:                                          18
       Number of orbital shells:                                              18
       Number of primitive Cartesian functions:                               18
       Number of Cartesian basis functions:                                  107
       Number of spherical basis functions:                                   76
       Norm type:                                                              2

       Normalised Cartesian orbitals:

                        Set   Shell   Orbital            Exponent    Coefficient

                          1       1    1s                0.189053       0.204337

                          2       1    7px               0.264845       0.270819
                          2       1    7py               0.264845       0.270819
                          2       1    7pz               0.264845       0.270819

                          3       1   11dx2              0.294055       0.193268
                          3       1   11dxy              0.294055       0.334750
                          3       1   11dxz              0.294055       0.334750
                          3       1   11dy2              0.294055       0.193268
                          3       1   11dyz              0.294055       0.334750
                          3       1   11dz2              0.294055       0.193268

                          4       1   16gx4              0.336043       0.055465
                          4       1   16gx3y             0.336043       0.146747
                          4       1   16gx3z             0.336043       0.146747
                          4       1   16gx2y2            0.336043       0.189449
                          4       1   16gx2yz            0.336043       0.328136
                          4       1   16gx2z2            0.336043       0.189449
                          4       1   16gxy3             0.336043       0.146747
                          4       1   16gxy2z            0.336043       0.328136
                          4       1   16gxyz2            0.336043       0.328136
                          4       1   16gxz3             0.336043       0.146747
                          4       1   16gy4              0.336043       0.055465
                          4       1   16gy3z             0.336043       0.146747
                          4       1   16gy2z2            0.336043       0.189449
                          4       1   16gyz3             0.336043       0.146747
                          4       1   16gz4              0.336043       0.055465

                          5       1    2s                0.362163       0.332727

                          6       1   14fx3              0.426326       0.216209
                          6       1   14fx2y             0.426326       0.483457
                          6       1   14fx2z             0.426326       0.483457
                          6       1   14fxy2             0.426326       0.483457
                          6       1   14fxyz             0.426326       0.837372
                          6       1   14fxz2             0.426326       0.483457
                          6       1   14fy3              0.426326       0.216209
                          6       1   14fy2z             0.426326       0.483457
                          6       1   14fyz2             0.426326       0.483457
                          6       1   14fz3              0.426326       0.216209

                          7       1   18hx5              0.587886       0.131992
                          7       1   18hx4y             0.587886       0.395975
                          7       1   18hx4z             0.587886       0.395975
                          7       1   18hx3y2            0.587886       0.604862
                          7       1   18hx3yz            0.587886       1.047651
                          7       1   18hx3z2            0.587886       0.604862
                          7       1   18hx2y3            0.587886       0.604862
                          7       1   18hx2y2z           0.587886       1.352512
                          7       1   18hx2yz2           0.587886       1.352512
                          7       1   18hx2z3            0.587886       0.604862
                          7       1   18hxy4             0.587886       0.395975
                          7       1   18hxy3z            0.587886       1.047651
                          7       1   18hxy2z2           0.587886       1.352512
                          7       1   18hxyz3            0.587886       1.047651
                          7       1   18hxz4             0.587886       0.395975
                          7       1   18hy5              0.587886       0.131992
                          7       1   18hy4z             0.587886       0.395975
                          7       1   18hy3z2            0.587886       0.604862
                          7       1   18hy2z3            0.587886       0.604862
                          7       1   18hyz4             0.587886       0.395975
                          7       1   18hz5              0.587886       0.131992

                          8       1    8px               0.682676       0.884522
                          8       1    8py               0.682676       0.884522
                          8       1    8pz               0.682676       0.884522

                          9       1    3s                0.703338       0.547372

                         10       1   12dx2              0.951478       1.508716
                         10       1   12dxy              0.951478       2.613172
                         10       1   12dxz              0.951478       2.613172
                         10       1   12dy2              0.951478       1.508716
                         10       1   12dyz              0.951478       2.613172
                         10       1   12dz2              0.951478       1.508716

[...]
 Electronic Structure Calculations on Graphics Processing Units, 173-190 (2016).
 GPU-Accelerated Sparse Matrix-Matrix Multiplication for Linear Scaling Density 
 Functional Theory.
 https://doi.org/10.1002/9781118670712.ch8

 A. Heinecke, G. Henry, M. Hutchinson, H. Pabst.
 Proceedings of Intl. Supercomputing Conference, 981-991 (2016).
 LIBXSMM: Accelerating Small Matrix Multiplications by Runtime Code Generation.
 https://doi.org/10.1109/SC.2016.83

 J. Hutter, M. Iannuzzi, F. Schiffmann, J. VandeVondele.
 WIREs Comput Mol Sci. 4, 15-25 (2014).
 CP2K: atomistic simulations of condensed matter systems.
 https://doi.org/10.1002/wcms.1159

 U. Borstnik, J. VandeVondele, V. Weber, J. Hutter.
 Parallel Comput. 40, 47-58 (2014).
 Sparse matrix multiplication: The distributed block-compressed sparse row 
 library.
 https://doi.org/10.1016/j.parco.2014.03.012

 A. Marek, V. Blum, R. Johanni, V. Havu, B. Lang, T. Auckenthaler, A. Heinecke, 
 H. Bungartz, H. Lederer.
 J. Phys. Condens. Matter 26, 213201 (2014).
 The ELPA library: scalable parallel eigenvalue solutions for electronic 
 structure theory and computational science.
 https://doi.org/10.1088/0953-8984/26/21/213201

 J. VandeVondele, J. Hutter.
 J. Chem. Phys. 127, 114105 (2007).
 Gaussian basis sets for accurate calculations on molecular systems in gas and 
 condensed phases.
 https://doi.org/10.1063/1.2770708

 M. Krack.
 Theor. Chem. Acc. 114, 145-152 (2005).
 Pseudopotentials for H to Kr optimized for gradient-corrected 
 exchange-correlation functionals.
 https://doi.org/10.1007/s00214-005-0655-y

 M. Frigo, S. G. Johnson.
 Proc. IEEE 93, 216-231 (2005).
 The design and implementation of FFTW3.
 https://doi.org/10.1109/JPROC.2004.840301

 M. Krack, M. Parrinello.
 Phys. Chem. Chem. Phys. 2, 2105-2112 (2000).
 All-electron ab-initio molecular dynamics.
 https://doi.org/10.1039/b001167n

 G. Lippert, J. Hutter, M. Parrinello.
 Theor. Chem. Acc. 103, 124-140 (1999).
 The Gaussian and augmented-plane-wave density functional method for ab initio 
 molecular dynamics simulations.
 https://doi.org/10.1007/s002140050523

 C. Hartwigsen, S. Goedecker, J. Hutter.
 Phys. Rev. B 58, 3641-3662 (1998).
 Relativistic separable dual-space Gaussian pseudopotentials from H to Rn.
 https://doi.org/10.1103/PhysRevB.58.3641

 S. Goedecker, M. Teter, J. Hutter.
 Phys. Rev. B 54, 1703-1710 (1996).
 Separable dual-space Gaussian pseudopotentials.
 https://doi.org/10.1103/PhysRevB.54.1703

 J. P. Perdew, K. Burke, M. Ernzerhof.
 Phys. Rev. Lett. 77, 3865-3868 (1996).
 Generalized gradient approximation made simple.
 https://doi.org/10.1103/PhysRevLett.77.3865


 -------------------------------------------------------------------------------
 -                                                                             -
 -                                T I M I N G                                  -
 -                                                                             -
 -------------------------------------------------------------------------------
 SUBROUTINE                       CALLS  ASD         SELF TIME        TOTAL TIME
                                MAXIMUM       AVERAGE  MAXIMUM  AVERAGE  MAXIMUM
 CP2K                                 1  1.0     0.28     0.29 22350.33 22350.60
 qs_energies                          1  2.0     0.01     0.01 22343.41 22348.48
 qs_energies_properties               1  3.0     0.00     0.00 22259.96 22265.03
 post_scf_bandstructure               1  4.0     0.00     0.00 22259.96 22265.03
 gw                                   1  5.0     0.01     0.01 22203.98 22204.25
 gw_calc_small_cell_full_kp           1  6.0     0.00     0.00 22085.71 22085.98
 dbt_total                      *******  9.8    49.35    54.40 12083.43 12820.01
 dbt_contract                   ******* 10.6    71.84    75.72  9618.90 10211.46
 dbt_tas_multiply               8667670 13.0     7.59     8.24  9005.99  9565.82
 dbt_tas_total                  8667670 14.0   484.78   513.94  9001.31  9560.89
 compute_W_real_space                 1  7.0    11.51    11.76  8322.61  8322.74
 compute_Sigma_c                      1  7.0     0.01     0.01  7636.70  7636.81
 compute_Minv_and_Vsqrt               1  8.0     0.17     0.19  7519.03  7519.33
 build_2c_coulomb_matrix_kp_sma       2  9.0     3.10     3.54  7501.34  7501.43
 build_2c_coulomb_matrix_kp_sma  655360 10.0  6835.37  7164.52  6835.37  7164.52
 compute_chi                          1  7.0     0.12     0.14  5769.20  5769.30
 contract_to_Sigma                  848  8.0    81.66    90.80  4559.52  4961.58
 dbt_tas_dbm                    8667670 15.0     7.13     7.76  4045.73  4368.36
 dbm_multiply                   8667670 17.0  4029.92  4352.10  4029.92  4352.10
 contract_to_Sigma_3c_x_G       6745098  9.0     8.14     9.08  2749.30  3027.96
 dbt_copy                       ******* 11.1    58.95    64.46  2711.74  2984.27
 contract_M_occ_vir_to_chi          416  8.0   144.82   165.15  2751.72  2971.82
 contract_W                         432  8.0    11.27    11.89  2661.17  2914.42
 dbt_tas_estimate_result_nze    4333835 13.5   647.76   680.91  2696.13  2832.88
 G_times_3c                       39104  8.0    13.55    14.04  2546.90  2678.05
 mp_sync                        ******* 12.0  1416.91  2656.73  1416.91  2656.73
 dbt_reshape                    ******* 12.0  1392.97  1590.24  1995.32  2191.41
 contract_to_Sigma_contract       39856  9.0    15.86    16.90  1702.25  1864.59
 dbt_tas_mm_2                   2810262 16.0     2.84     3.13  1636.35  1802.87
 dbt_tas_mm_3T                  3581006 16.2     2.28     2.53  1500.86  1612.26
 get_t_3c_int                   *******  9.6    54.12    57.81  1347.40  1490.35
 reshape_mm_small               8667670 15.0   506.68   532.82  1068.51  1124.14
 dbt_tas_mm_1N                  2308800 15.5     1.32     1.46   899.91   958.78
 dbt_tas_reshape                9742920 15.5    61.92    65.65   794.91   850.15
 convert_to_new_pgrid           ******* 15.0   105.88   115.19   610.50   683.70
 dbm_reserve_blocks             ******* 16.6   537.23   584.99   537.23   584.99
 dbm_copy                       ******* 16.0   504.62   580.54   504.62   580.54
 dbt_tas_reserve_blocks_index   ******* 15.7    24.33    25.67   522.50   568.09
 dbt_tas_create_split           ******* 16.0    14.48    15.68   522.34   555.91
 dbt_tas_create_split_rows_or_c ******* 17.0    53.22    56.17   507.86   540.24
 reshape_mm_compatible          8667670 15.0    72.06    75.92   476.55   502.88
 dbt_remap                       565600 11.0    52.10    54.56   406.99   457.65
 dbt_tas_reshape_buffer_fill    9742920 16.5   390.48   419.06   390.48   419.06
 dbt_communicate_buffer         ******* 13.0   355.48   417.40   355.48   417.40
 dbt_tas_replicate              8667670 15.0   200.60   210.61   382.83   401.10
 dbt_tas_copy                   6172981 12.6   205.46   234.01   333.07   381.36
 dbt_tas_distribution_new       ******* 15.8   187.62   195.66   356.21   372.77
 change_split                   ******* 15.4    23.34    24.85   332.29   354.20
 dbt_reserve_blocks_index_array ******* 13.0     9.96    11.90   315.07   349.10
 dbt_reserve_blocks_index       ******* 14.0    11.06    12.05   308.19   341.76
 dbt_copy_nocomm                1879228 11.0   186.57   241.22   270.76   333.35
 add_rs_to_ikp                  *******  9.7   309.74   321.72   309.74   321.72
 trafo_rs_to_ikp                  25100  8.1     9.85    12.19   303.38   311.87
 mp_cart_create                 ******* 16.7   251.21   263.76   273.22   286.60
 compute_Sigma_x                      1  7.0     0.00     0.00   252.89   252.93
 dbt_tas_reshape_buffer_obtain  9742920 16.5   157.71   169.04   233.41   248.75
 add_ikp_to_rs                  *******  9.8   212.66   227.44   212.66   227.44
 dbt_tas_reserve_blocks_templat ******* 14.1    44.61    49.88   196.46   219.79
 add_ikp_to_all_rs                22798  8.0     7.90     9.31   202.80   216.52
 add_V_L                         327680 10.0    17.72   213.96    17.72   213.96
 dbm_add                        8667670 15.0   178.09   198.85   178.09   198.85
 power                            47564  8.0     9.76    10.98   174.90   182.88
 G_occ_vir                          105  8.0     0.28     0.37   179.54   180.72
 mp_comm_dup                    ******* 18.6   157.17   165.49   167.73   176.62
 diag_complex                     47564  9.0   165.14   172.70   165.14   172.70
 dbt_tas_create_new             ******* 15.3   155.27   167.20   155.27   167.20
 parallel_gemm_cfm               245816  8.9     0.15     0.20   132.78   137.12
 parallel_gemm_cfm_cosma         245816  9.9   132.63   136.99   132.63   136.99
 dbcsr_complete_redistribute     381741  9.8     6.34     9.75   124.79   133.33
 mp_sum_dm                       655403 10.0   117.09   130.09   117.09   130.09
 copy_dbcsr_to_fm                209682  8.2     1.10     1.18   122.84   125.25
 mp_comm_free                   ******* 15.8   112.01   121.84   112.01   121.84
 mp_comm_split_direct           ******* 18.0   107.28   114.18   114.67   121.81
 dbt_permute_index              ******* 12.2    95.41   105.14   108.32   119.18
 create_and_init_bs_env_for_gw        1  6.0     0.01     0.01   118.27   118.28
 fm_to_local_tensor              126852  9.0     1.42     1.50   110.90   110.92
 compute_QP_energies                  1  7.0     0.04     0.05   104.30   104.31
 dbt_tas_merge                  2810262 15.0    75.28    79.99    97.95   103.90
 trafo_to_k_and_nn                62116  8.0     0.23     0.45   103.71   103.78
 add_R                          *******  9.3    61.98    68.02    86.58    93.72
 dbt_reserve_blocks_template    1879228 12.0     5.75     6.55    84.18    92.13
 fm_to_local_array                  706  8.1    16.72    18.29    91.34    91.93
 compute_3c_integrals                 1  7.0     0.03     0.03    88.79    88.79
 build_3c_integrals                   1  8.0    82.68    85.32    85.71    88.50
 dbt_tas_communicate_buffer     ******* 17.2    64.86    83.13    64.86    83.13
 scf_env_do_scf                       1  3.0     0.00     0.00    82.50    82.50
 scf_env_do_scf_inner_loop           44  4.0     0.01     0.01    82.50    82.50
 dbt_align_index                ******* 11.5    12.83    13.49    76.88    81.18
 dbt_tas_reshape_communicate_bu 9742920 16.5     7.12     7.77    62.11    79.97
 qs_scf_new_mos_kp                   44  5.0     0.00     0.00    78.89    78.92
 do_general_diag_kp                  44  6.0     0.22     0.22    78.89    78.92
 mp_alltoall_i22                 695599 10.2    68.51    78.43    68.51    78.43
 mp_sum_dm3                         803  9.0    71.34    76.68    71.34    76.68
 local_dbt_to_global_fm              79  8.0     0.14     0.16    75.34    75.34
 dbm_filter                     ******* 14.9    66.22    70.62    66.22    70.62
 dbt_tas_mp_comm                4871460 13.2     6.84     7.41    64.65    68.10
 reshape_mm_template            1131200 15.5    36.68    38.84    59.27    62.07
 fm_add_ikp_to_rs                107520  9.0    30.90    32.75    48.68    52.26
 global_matrix_to_local_matrix   126852 10.0     0.73     1.14    45.39    52.18
 copy_fm_to_dbcsr                172059  9.5     0.44     0.49    43.13    51.48
 mult_W_with_Minv                    26  8.0     0.36     0.38    50.01    50.03
 dbcsr_desymmetrize_deep         313858  8.5     2.24     2.65    46.92    49.57
 mp_cart_get                    ******* -9.6    43.20    46.03    43.20    46.03
 dbt_distribution_new_expert    1384914 12.3     7.59     8.01    43.63    45.75
 dbt_destroy                    ******* 11.4    37.70    40.41    41.32    44.12
 fm_trafo_rs_to_ikp               62116  9.0    18.15    18.40    34.36    43.88
 is_cell_in_index_to_cell       ******* -6.3    41.22    42.52    41.22    42.52
 dos_pdos_ldos                        1  5.0     0.00     0.01    35.21    40.24
 mp_cart_sub                     419435 10.2    39.76    39.80    39.76    39.80
 mp_comm_size                   ******* -4.1    37.16    39.46    37.16    39.46
 dbm_scale                      ******* 13.3    35.68    37.85    35.68    37.85
 dbt_tas_reshape_get_coord      9742920 16.5    33.17    35.49    33.17    35.49
 cp_cfm_heevd                      6096  7.6     0.00     0.00    33.88    33.95
 cp_cfm_heevd_base                 6096  8.6    33.87    33.94    33.87    33.94
 dbcsr_finalize                 1550893 11.1     6.24     6.84    29.62    33.81
 fm_MWM_R_t_to_local_tensor_W_R      26  8.0     0.02     0.03    32.74    32.74
 SOC_ev                            2344  6.0     0.03     0.03    30.66    30.68
 mp_comm_rank                   ******* -4.1    28.58    30.07    28.58    30.07
 get_V_tr_R                          30  9.0     0.08     0.09    29.37    29.65
 mp_waitall_1                   1068172 11.3    21.25    29.42    21.25    29.42
 send_data                       126852 11.0     0.07     0.09    22.34    29.24
 communicate_buffer              126852 12.0     1.17     4.65    22.27    29.17
 dbt_create_new                  692457 11.8     4.93     5.23    25.64    27.00
 local_dbt_to_global_mat          75919  9.0     0.49     0.52    18.24    26.00
 mp_alltoall_i                  ******* 15.0    22.69    23.83    22.69    23.83
 dbcsr_filter_anytype            568623 11.0     2.18     2.38    18.66    22.49
 mp_sum_i                       7719278 16.0    18.28    19.64    18.28    19.64
 mp_cart_rank                   ******* 15.9    14.71    18.51    14.71    18.51
 local_matrix_to_global_matrix    75919 10.0     0.14     0.15    10.42    18.05
 kpoint_density_transform            44  7.0     0.08     0.08    17.51    17.53
 dbcsr_merge_all                 582247 11.9    10.33    12.06    14.53    16.39
 create_and_init_bs_env               1  5.0     0.00     0.00    15.78    15.79
 compute_cfm_mo_coeff_kp_and_ei       1  6.0     0.00     0.00    15.78    15.78
 heuristic_RI_regularization          1  7.0     0.00     0.00    14.77    14.77
 mp_sum_l                       ******* 15.1    13.34    14.06    13.34    14.06
 dbt_create_matrix               126852 10.0     0.71     0.73    13.18    13.85
 dbt_create_3c_R1_R2                 54  8.0     1.50     1.66    12.44    13.37
 dbt_create_template            2048755  9.0    12.07    13.08    12.07    13.08
 get_data                        126852 11.0     1.69    12.60     1.88    12.83
 dbt_tas_replicate_communicate_ 5885698 15.9     3.65     4.02    10.74    12.43
 send_sizes_1                    126852 11.0     0.07     0.08    11.13    12.30
 rskp_transform                   52088  7.2     0.76    12.21     0.76    12.21
 cp_cfm_geeig_canon                1172  7.0     0.00     0.00    12.04    12.06
 dbt_pgrid_create_expert        1384917 13.3     1.63     1.82    11.04    11.57
 dbt_tas_reshape_alltoall       9742920 16.5     5.80     6.20    10.87    11.50
 set_blocks                       75919 11.0     0.50     2.23     5.36    10.17
 rsmat_to_kp                       7032  7.2     0.05     0.06     9.60     9.73
 cp_fm_start_copy_general        135168  7.3     0.61     1.13     8.79     8.95
 setup_cells_3c                       1  7.0     0.36     0.36     8.73     8.74
 mp_alltoall_d11v               2086797 10.7     3.72     8.50     3.72     8.50
 build_3c_integral_block          27000  8.0     3.34     3.55     8.18     8.37
 mp_max_i                       ******* 11.6     7.24     8.26     7.24     8.26
 dbcsr_iterator_start           3281456 11.0     7.27     7.49     7.87     8.21
 dbt_nd_mp_comm                  692452 11.8     1.09     1.25     7.75     8.20
 mp_bcast_i                     ******* 18.0     6.87     7.69     6.87     7.69
 mp_isend_dv                    6171799 12.3     0.69     7.47     0.69     7.47
 destroy_t_2d                        54  8.0     1.59     1.71     6.94     7.44
 dbcsr_work_create               896105 10.6     4.32     4.96     6.56     7.35
 dbcsr_work_destroy_all          896105 11.4     3.90     4.62     6.01     7.00
 mp_dims_create                 ******* 14.4     5.60     6.50     5.60     6.50
 dbt_tas_replicate_alltoall     5885698 15.9     3.10     3.48     5.61     6.23
 mp_allgather_i                  270336  8.3     5.51     5.75     5.51     5.75
 transform_dmat                   22528  8.0     0.34     5.64     0.34     5.64
 copy_fm_to_dbcsr_bc             172059 10.5     1.55     1.64     5.23     5.44
 dbt_tas_merge_communicate_buff 2810262 16.0     1.96     2.17     4.75     5.25
 restraint_control                    1  2.0     0.00     0.00     5.04     5.14
 write_dos_pdos                       4  6.0     0.11     5.14     0.11     5.14
 soc                                  1  5.0     0.00     0.00     4.98     4.98
 H_KS_spinor_kp                       1  6.0     0.01     0.01     4.95     4.96
 dbt_buffer_get_index           ******* 16.8     4.47     4.87     4.47     4.87
 abc_contract_xsmm                68766  9.0     4.63     4.82     4.63     4.82
 dbt_distribution_destroy       1384914 12.3     3.51     3.72     4.38     4.64
 dbcsr_iterator_stop            3281456 11.0     4.04     4.19     4.47     4.64
 dbcsr_create_new               1245120 10.1     3.61     3.82     4.37     4.63
 dbt_copy_matrix_to_tensor       126852 10.0     1.59     1.75     4.38     4.60
 dbcsr_data_release             ******* 12.3     3.82     4.44     3.82     4.44
 send_sizes_2                    126852 11.0     0.07     0.08     4.23     4.44
 get_Minv_Vtr_Minv_R                  1  8.0     0.02     0.02     4.38     4.41
 mp_sum_dv                        69285  8.8     3.51     4.36     3.51     4.36
 dbt_tas_merge_alltoall         2810262 16.0     2.15     2.40     3.68     4.02
 reserve_blocks                  126852 11.0     0.30     0.32     3.82     3.96
 mp_alltoall_i11v               1459081 10.5     2.67     3.88     2.67     3.88
 compute_proj_mo_on_kind           1172  6.0     0.02     0.02     3.73     3.78
 copy_dbcsr_to_fm_bc             209682  9.2     1.44     1.57     3.44     3.57
 dbcsr_data_new                 ******* 11.7     3.18     3.48     3.18     3.48
 build_2c_integrals                  30 10.0     0.11     1.66     0.25     3.39
 comm_data                        75919 11.0     0.19     0.57     0.76     3.30
 tree_to_linear_d                426506 12.8     2.82     3.12     2.82     3.12
 comm_size                        75919 11.0     0.05     0.05     2.53     3.06
 trafo_V_xc_R_to_kp                   1  7.0     0.01     0.01     2.94     2.95
 analyt_conti_and_print            1172  8.0     0.12     2.15     0.50     2.59
 setup_parallelization_Delta_R        1  7.0     0.00     0.00     2.58     2.58
 compute_n_tensor_ops_Delta_R         1  8.0     0.82     1.15     2.58     2.58
 dbcsr_destroy                  1155007  9.8     1.33     1.41     2.26     2.43
 alloc_block_3c                       1  9.0     0.13     0.15     2.28     2.42
 mp_waitall_2                    151838 12.0     0.43     2.38     0.43     2.38
 mp_isend_im2                   6180247 12.9     0.28     2.30     0.28     2.30
 dbcsr_reserve_blocks            496021 12.2     1.27     1.93     1.53     2.24
 -------------------------------------------------------------------------------

 The number of warnings for this run is : 1
 
 -------------------------------------------------------------------------------
  **** **** ******  **  PROGRAM ENDED AT                 2025-05-25 10:17:23.761
 ***** ** ***  *** **   PROGRAM RAN ON                    n2lcn0104.ab2021.local
 **    ****   ******    PROGRAM RAN BY                                  metdyn02
 ***** **    ** ** **   PROGRAM PROCESS ID                               1217995
  **** **  *******  **  PROGRAM STOPPED IN /scratch/hpc-prf-metdyn/metdyn02_Remi
                                           /05_TMD_new/paperbenchmarks/timepoint
                                           sHEDIN/26
