SIRIUS 7.5.2, git hash: https://api.github.com/repos/electronic-structure/SIRIUS/git/ref/tags/v7.5.2
 DBCSR| CPU Multiplication driver                                           XSMM (U)
 DBCSR| Multrec recursion limit                                              512 (U)
 DBCSR| Multiplication stack size                                           1000 (D)
 DBCSR| Maximum elements for images                                    UNLIMITED (U)
 DBCSR| Multiplicative factor virtual images                                   1 (U)
 DBCSR| Use multiplication densification                                       T (D)
 DBCSR| Multiplication size stacks                                             3 (U)
 DBCSR| Use memory pool for CPU allocation                                     F (U)
 DBCSR| Number of 3D layers                                               SINGLE (U)
 DBCSR| Use MPI memory allocation                                              F (U)
 DBCSR| Use RMA algorithm                                                      F (U)
 DBCSR| Use Communication thread                                               T (U)
 DBCSR| Communication thread load                                             60 (D)
 DBCSR| MPI: My process id                                                     0
 DBCSR| MPI: Number of processes                                              96
 DBCSR| OMP: Current number of threads                                         8
 DBCSR| OMP: Max number of threads                                             8
 DBCSR| Split modifier for TAS multiplication algorithm                  1.0E+00 (U)


  **** **** ******  **  PROGRAM STARTED AT               2025-01-10 12:05:14.848
 ***** ** ***  *** **   PROGRAM STARTED ON                n2lcn0103.ab2021.local
 **    ****   ******    PROGRAM STARTED BY                              metdyn02
 ***** **    ** ** **   PROGRAM PROCESS ID                               4016690
  **** **  *******  **  PROGRAM STARTED IN /scratch/hpc-prf-metdyn/metdyn02_Remi
                                           /05_TMD_new/3_WS2__/SZV/1e-3

 CP2K| version string:                 CP2K version 2024.3 (Development Version)
 CP2K| source code revision number:                                  git:971aa1d
 CP2K| cp2kflags: omp libint fftw3 libxc libgrpp elpa parallel scalapack mpi_f08
 CP2K|             cosma deepmd xsmm plumed2 spglib sirius libvori libbqb libvdw
 CP2K|            wxc hdf5
 CP2K| is freely available from                            https://www.cp2k.org/
 CP2K| Program compiled at                          Thu Dec 19 17:50:00 CET 2024
 CP2K| Program compiled on                                              n2login1
 CP2K| Program compiled for                                                local
 CP2K| Data directory path    /opt/software/pc2/EB-SW/software/CP2K/2024.1-foss-
 CP2K| Input file name                                                    GW.inp

 GLOBAL| Force Environment number                                              1
 GLOBAL| Basis set file name            /scratch/hpc-prf-metdyn/metdyn02_Remi/05
 GLOBAL| Potential file name            /pc2/groups/hpc-prf-metdyn/metdyn02_Remi
 GLOBAL| MM Potential file name                                     MM_POTENTIAL
 GLOBAL| Coordinate file name                                      __STD_INPUT__
 GLOBAL| Method name                                                        CP2K
 GLOBAL| Project name                                                        WS2
 GLOBAL| Run type                                                         ENERGY
 GLOBAL| FFT library                                                       FFTW3
 GLOBAL| Diagonalization library                                            ELPA
 GLOBAL| DGEMM library                                                      BLAS
 GLOBAL| Minimum number of eigenvectors for ELPA usage                        16
 GLOBAL| Orthonormality check for eigenvectors                          DISABLED
 GLOBAL| Matrix multiplication library                                     COSMA
 GLOBAL| All-to-all communication in single precision                          F
 GLOBAL| FFTs using library dependent lengths                                  F
 GLOBAL| Grid backend                                                       AUTO
 GLOBAL| Global print level                                               MEDIUM
 GLOBAL| MPI I/O enabled                                                       T
 GLOBAL| Total number of message passing processes                            96
 GLOBAL| Number of threads for this process                                    8
 GLOBAL| This output is from process                                           0
 GLOBAL| OpenMP stack size per thread (OMP_STACKSIZE)                    default
 GLOBAL| CPU model name                          AMD EPYC 7763 64-Core Processor
 GLOBAL| CPUID                                                              1002

 MEMORY| system memory details [Kb]
 MEMORY|                        rank 0           min           max       average
 MEMORY| MemTotal           1056622248    1056622244    1056622248    1056622245
 MEMORY| MemFree            1042198480    1039465320    1043052840    1042165426
 MEMORY| Buffers                276000        129404        276000        246068
 MEMORY| Cached                5759956       4574972       7731652       5676733
 MEMORY| Slab                  1727912       1483276       2371824       1775981
 MEMORY| SReclaimable           344852        270708        974984        408366
 MEMORY| MemLikelyFree      1048579288    1048156916    1048610756    1048496594


 *** Fundamental physical constants (SI units) ***

 *** Literature: B. J. Mohr and B. N. Taylor,
 ***             CODATA recommended values of the fundamental physical
 ***             constants: 2006, Web Version 5.1
 ***             http://physics.nist.gov/constants

 Speed of light in vacuum [m/s]                             2.99792458000000E+08
 Magnetic constant or permeability of vacuum [N/A**2]       1.25663706143592E-06
 Electric constant or permittivity of vacuum [F/m]          8.85418781762039E-12
 Planck constant (h) [J*s]                                  6.62606896000000E-34
 Planck constant (h-bar) [J*s]                              1.05457162825177E-34
 Elementary charge [C]                                      1.60217648700000E-19
 Electron mass [kg]                                         9.10938215000000E-31
 Electron g factor [ ]                                     -2.00231930436220E+00
 Proton mass [kg]                                           1.67262163700000E-27
 Fine-structure constant                                    7.29735253760000E-03
 Rydberg constant [1/m]                                     1.09737315685270E+07
 Avogadro constant [1/mol]                                  6.02214179000000E+23
 Boltzmann constant [J/K]                                   1.38065040000000E-23
 Atomic mass unit [kg]                                      1.66053878200000E-27
 Bohr radius [m]                                            5.29177208590000E-11

 *** Conversion factors ***

 [u] -> [a.u.]                                              1.82288848426455E+03
 [Angstrom] -> [Bohr] = [a.u.]                              1.88972613288564E+00
 [a.u.] = [Bohr] -> [Angstrom]                              5.29177208590000E-01
 [a.u.] -> [s]                                              2.41888432650478E-17
 [a.u.] -> [fs]                                             2.41888432650478E-02
 [a.u.] -> [J]                                              4.35974393937059E-18
 [a.u.] -> [N]                                              8.23872205491840E-08
 [a.u.] -> [K]                                              3.15774647902944E+05
 [a.u.] -> [kJ/mol]                                         2.62549961709828E+03
 [a.u.] -> [kcal/mol]                                       6.27509468713739E+02
 [a.u.] -> [Pa]                                             2.94210107994716E+13
 [a.u.] -> [bar]                                            2.94210107994716E+08
 [a.u.] -> [atm]                                            2.90362800883016E+08
 [a.u.] -> [eV]                                             2.72113838565563E+01
 [a.u.] -> [Hz]                                             6.57968392072181E+15
 [a.u.] -> [1/cm] (wave numbers)                            2.19474631370540E+05
 [a.u./Bohr**2] -> [1/cm]                                   5.14048714338585E+03
 

 CELL_TOP| Volume [angstrom^3]:                                       131.860110
 CELL_TOP| Vector a [angstrom     3.186     0.000     0.000   |a| =     3.186000
 CELL_TOP| Vector b [angstrom    -1.593     2.759     0.000   |b| =     3.186000
 CELL_TOP| Vector c [angstrom     0.000     0.000    15.000   |c| =    15.000000
 CELL_TOP| Angle (b,c), alpha [degree]:                                90.000000
 CELL_TOP| Angle (a,c), beta  [degree]:                                90.000000
 CELL_TOP| Angle (a,b), gamma [degree]:                               120.000000
 CELL_TOP| Numerically orthorhombic:                                          NO
 CELL_TOP| Periodicity                                                        XY

 GENERATE|  Preliminary Number of Bonds generated:                             0
 GENERATE|  Achieved consistency in connectivity generation.

 CELL| Volume [angstrom^3]:                                           131.860110
 CELL| Vector a [angstrom]:       3.186     0.000     0.000   |a| =     3.186000
 CELL| Vector b [angstrom]:      -1.593     2.759     0.000   |b| =     3.186000
 CELL| Vector c [angstrom]:       0.000     0.000    15.000   |c| =    15.000000
 CELL| Angle (b,c), alpha [degree]:                                    90.000000
 CELL| Angle (a,c), beta  [degree]:                                    90.000000
 CELL| Angle (a,b), gamma [degree]:                                   120.000000
 CELL| Numerically orthorhombic:                                              NO
 CELL| Periodicity                                                            XY

 CELL_REF| Volume [angstrom^3]:                                       131.860110
 CELL_REF| Vector a [angstrom     3.186     0.000     0.000   |a| =     3.186000
 CELL_REF| Vector b [angstrom    -1.593     2.759     0.000   |b| =     3.186000
 CELL_REF| Vector c [angstrom     0.000     0.000    15.000   |c| =    15.000000
 CELL_REF| Angle (b,c), alpha [degree]:                                90.000000
 CELL_REF| Angle (a,c), beta  [degree]:                                90.000000
 CELL_REF| Angle (a,b), gamma [degree]:                               120.000000
 CELL_REF| Numerically orthorhombic:                                          NO
 CELL_REF| Periodicity                                                        XY

 *******************************************************************************
                                    Kpoints
 *******************************************************************************
 BRILLOUIN| K-point scheme                                        Monkhorst-Pack
 BRILLOUIN| K-Point grid                                            32   32    1
 BRILLOUIN| Accuracy in Symmetry determination                      0.100000E-05
 BRILLOUIN| K-Point point group symmetrization                               OFF
 BRILLOUIN| Wavefunction type                                            COMPLEX
 BRILLOUIN| List of Kpoints [2 Pi/Bohr]                                      512
 BRILLOUIN| Number           Weight            X              Y              Z
 BRILLOUIN|     1           0.00195       -0.48438       -0.48438        0.00000
 BRILLOUIN|     2           0.00195       -0.48438       -0.45312        0.00000
 BRILLOUIN|     3           0.00195       -0.48438       -0.42188        0.00000
 BRILLOUIN|     4           0.00195       -0.48438       -0.39062        0.00000
 BRILLOUIN|     5           0.00195       -0.48438       -0.35938        0.00000
 BRILLOUIN|     6           0.00195       -0.48438       -0.32812        0.00000
 BRILLOUIN|     7           0.00195       -0.48438       -0.29688        0.00000
 BRILLOUIN|     8           0.00195       -0.48438       -0.26562        0.00000
 BRILLOUIN|     9           0.00195       -0.48438       -0.23438        0.00000
 BRILLOUIN|    10           0.00195       -0.48438       -0.20312        0.00000
 BRILLOUIN|    11           0.00195       -0.48438       -0.17188        0.00000
 BRILLOUIN|    12           0.00195       -0.48438       -0.14062        0.00000
 BRILLOUIN|    13           0.00195       -0.48438       -0.10938        0.00000
 BRILLOUIN|    14           0.00195       -0.48438       -0.07812        0.00000
 BRILLOUIN|    15           0.00195       -0.48438       -0.04688        0.00000
 BRILLOUIN|    16           0.00195       -0.48438       -0.01562        0.00000
 BRILLOUIN|    17           0.00195       -0.48438        0.01562        0.00000
 BRILLOUIN|    18           0.00195       -0.48438        0.04688        0.00000
 BRILLOUIN|    19           0.00195       -0.48438        0.07812        0.00000
 BRILLOUIN|    20           0.00195       -0.48438        0.10938        0.00000
 BRILLOUIN|    21           0.00195       -0.48438        0.14062        0.00000
 BRILLOUIN|    22           0.00195       -0.48438        0.17188        0.00000
 BRILLOUIN|    23           0.00195       -0.48438        0.20312        0.00000
 BRILLOUIN|    24           0.00195       -0.48438        0.23438        0.00000
 BRILLOUIN|    25           0.00195       -0.48438        0.26562        0.00000
 BRILLOUIN|    26           0.00195       -0.48438        0.29688        0.00000
 BRILLOUIN|    27           0.00195       -0.48438        0.32812        0.00000
 BRILLOUIN|    28           0.00195       -0.48438        0.35938        0.00000
 BRILLOUIN|    29           0.00195       -0.48438        0.39062        0.00000
 BRILLOUIN|    30           0.00195       -0.48438        0.42188        0.00000
 BRILLOUIN|    31           0.00195       -0.48438        0.45312        0.00000
 BRILLOUIN|    32           0.00195       -0.48438        0.48438        0.00000
 BRILLOUIN|    33           0.00195       -0.45312       -0.48438        0.00000
 BRILLOUIN|    34           0.00195       -0.45312       -0.45312        0.00000
 BRILLOUIN|    35           0.00195       -0.45312       -0.42188        0.00000
 BRILLOUIN|    36           0.00195       -0.45312       -0.39062        0.00000
 BRILLOUIN|    37           0.00195       -0.45312       -0.35938        0.00000
 BRILLOUIN|    38           0.00195       -0.45312       -0.32812        0.00000
 BRILLOUIN|    39           0.00195       -0.45312       -0.29688        0.00000
 BRILLOUIN|    40           0.00195       -0.45312       -0.26562        0.00000
 BRILLOUIN|    41           0.00195       -0.45312       -0.23438        0.00000
 BRILLOUIN|    42           0.00195       -0.45312       -0.20312        0.00000
 BRILLOUIN|    43           0.00195       -0.45312       -0.17188        0.00000
 BRILLOUIN|    44           0.00195       -0.45312       -0.14062        0.00000
 BRILLOUIN|    45           0.00195       -0.45312       -0.10938        0.00000
 BRILLOUIN|    46           0.00195       -0.45312       -0.07812        0.00000
 BRILLOUIN|    47           0.00195       -0.45312       -0.04688        0.00000
 BRILLOUIN|    48           0.00195       -0.45312       -0.01562        0.00000
 BRILLOUIN|    49           0.00195       -0.45312        0.01562        0.00000
 BRILLOUIN|    50           0.00195       -0.45312        0.04688        0.00000
 BRILLOUIN|    51           0.00195       -0.45312        0.07812        0.00000
 BRILLOUIN|    52           0.00195       -0.45312        0.10938        0.00000
 BRILLOUIN|    53           0.00195       -0.45312        0.14062        0.00000
 BRILLOUIN|    54           0.00195       -0.45312        0.17188        0.00000
 BRILLOUIN|    55           0.00195       -0.45312        0.20312        0.00000
 BRILLOUIN|    56           0.00195       -0.45312        0.23438        0.00000
 BRILLOUIN|    57           0.00195       -0.45312        0.26562        0.00000
 BRILLOUIN|    58           0.00195       -0.45312        0.29688        0.00000
 BRILLOUIN|    59           0.00195       -0.45312        0.32812        0.00000
 BRILLOUIN|    60           0.00195       -0.45312        0.35938        0.00000
 BRILLOUIN|    61           0.00195       -0.45312        0.39062        0.00000
 BRILLOUIN|    62           0.00195       -0.45312        0.42188        0.00000
 BRILLOUIN|    63           0.00195       -0.45312        0.45312        0.00000
 BRILLOUIN|    64           0.00195       -0.45312        0.48438        0.00000
 BRILLOUIN|    65           0.00195       -0.42188       -0.48438        0.00000
 BRILLOUIN|    66           0.00195       -0.42188       -0.45312        0.00000
 BRILLOUIN|    67           0.00195       -0.42188       -0.42188        0.00000
 BRILLOUIN|    68           0.00195       -0.42188       -0.39062        0.00000
 BRILLOUIN|    69           0.00195       -0.42188       -0.35938        0.00000
 BRILLOUIN|    70           0.00195       -0.42188       -0.32812        0.00000
 BRILLOUIN|    71           0.00195       -0.42188       -0.29688        0.00000
 BRILLOUIN|    72           0.00195       -0.42188       -0.26562        0.00000
 BRILLOUIN|    73           0.00195       -0.42188       -0.23438        0.00000
 BRILLOUIN|    74           0.00195       -0.42188       -0.20312        0.00000
 BRILLOUIN|    75           0.00195       -0.42188       -0.17188        0.00000
 BRILLOUIN|    76           0.00195       -0.42188       -0.14062        0.00000
 BRILLOUIN|    77           0.00195       -0.42188       -0.10938        0.00000
 BRILLOUIN|    78           0.00195       -0.42188       -0.07812        0.00000
 BRILLOUIN|    79           0.00195       -0.42188       -0.04688        0.00000
 BRILLOUIN|    80           0.00195       -0.42188       -0.01562        0.00000
 BRILLOUIN|    81           0.00195       -0.42188        0.01562        0.00000
 BRILLOUIN|    82           0.00195       -0.42188        0.04688        0.00000
 BRILLOUIN|    83           0.00195       -0.42188        0.07812        0.00000
 BRILLOUIN|    84           0.00195       -0.42188        0.10938        0.00000
 BRILLOUIN|    85           0.00195       -0.42188        0.14062        0.00000
 BRILLOUIN|    86           0.00195       -0.42188        0.17188        0.00000
 BRILLOUIN|    87           0.00195       -0.42188        0.20312        0.00000
 BRILLOUIN|    88           0.00195       -0.42188        0.23438        0.00000
 BRILLOUIN|    89           0.00195       -0.42188        0.26562        0.00000
 BRILLOUIN|    90           0.00195       -0.42188        0.29688        0.00000
 BRILLOUIN|    91           0.00195       -0.42188        0.32812        0.00000
 BRILLOUIN|    92           0.00195       -0.42188        0.35938        0.00000
 BRILLOUIN|    93           0.00195       -0.42188        0.39062        0.00000
 BRILLOUIN|    94           0.00195       -0.42188        0.42188        0.00000
 BRILLOUIN|    95           0.00195       -0.42188        0.45312        0.00000
 BRILLOUIN|    96           0.00195       -0.42188        0.48438        0.00000
 BRILLOUIN|    97           0.00195       -0.39062       -0.48438        0.00000
 BRILLOUIN|    98           0.00195       -0.39062       -0.45312        0.00000
 BRILLOUIN|    99           0.00195       -0.39062       -0.42188        0.00000
 BRILLOUIN|   100           0.00195       -0.39062       -0.39062        0.00000
 BRILLOUIN|   101           0.00195       -0.39062       -0.35938        0.00000
 BRILLOUIN|   102           0.00195       -0.39062       -0.32812        0.00000
 BRILLOUIN|   103           0.00195       -0.39062       -0.29688        0.00000
 BRILLOUIN|   104           0.00195       -0.39062       -0.26562        0.00000
 BRILLOUIN|   105           0.00195       -0.39062       -0.23438        0.00000
 BRILLOUIN|   106           0.00195       -0.39062       -0.20312        0.00000
 BRILLOUIN|   107           0.00195       -0.39062       -0.17188        0.00000
 BRILLOUIN|   108           0.00195       -0.39062       -0.14062        0.00000
 BRILLOUIN|   109           0.00195       -0.39062       -0.10938        0.00000
 BRILLOUIN|   110           0.00195       -0.39062       -0.07812        0.00000
 BRILLOUIN|   111           0.00195       -0.39062       -0.04688        0.00000
 BRILLOUIN|   112           0.00195       -0.39062       -0.01562        0.00000
 BRILLOUIN|   113           0.00195       -0.39062        0.01562        0.00000
 BRILLOUIN|   114           0.00195       -0.39062        0.04688        0.00000
 BRILLOUIN|   115           0.00195       -0.39062        0.07812        0.00000
 BRILLOUIN|   116           0.00195       -0.39062        0.10938        0.00000
 BRILLOUIN|   117           0.00195       -0.39062        0.14062        0.00000
 BRILLOUIN|   118           0.00195       -0.39062        0.17188        0.00000
 BRILLOUIN|   119           0.00195       -0.39062        0.20312        0.00000
 BRILLOUIN|   120           0.00195       -0.39062        0.23438        0.00000
 BRILLOUIN|   121           0.00195       -0.39062        0.26562        0.00000
 BRILLOUIN|   122           0.00195       -0.39062        0.29688        0.00000
 BRILLOUIN|   123           0.00195       -0.39062        0.32812        0.00000
 BRILLOUIN|   124           0.00195       -0.39062        0.35938        0.00000
 BRILLOUIN|   125           0.00195       -0.39062        0.39062        0.00000
 BRILLOUIN|   126           0.00195       -0.39062        0.42188        0.00000
 BRILLOUIN|   127           0.00195       -0.39062        0.45312        0.00000
 BRILLOUIN|   128           0.00195       -0.39062        0.48438        0.00000
 BRILLOUIN|   129           0.00195       -0.35938       -0.48438        0.00000
 BRILLOUIN|   130           0.00195       -0.35938       -0.45312        0.00000
 BRILLOUIN|   131           0.00195       -0.35938       -0.42188        0.00000
 BRILLOUIN|   132           0.00195       -0.35938       -0.39062        0.00000
 BRILLOUIN|   133           0.00195       -0.35938       -0.35938        0.00000
 BRILLOUIN|   134           0.00195       -0.35938       -0.32812        0.00000
 BRILLOUIN|   135           0.00195       -0.35938       -0.29688        0.00000
 BRILLOUIN|   136           0.00195       -0.35938       -0.26562        0.00000
 BRILLOUIN|   137           0.00195       -0.35938       -0.23438        0.00000
 BRILLOUIN|   138           0.00195       -0.35938       -0.20312        0.00000
 BRILLOUIN|   139           0.00195       -0.35938       -0.17188        0.00000
 BRILLOUIN|   140           0.00195       -0.35938       -0.14062        0.00000
 BRILLOUIN|   141           0.00195       -0.35938       -0.10938        0.00000
 BRILLOUIN|   142           0.00195       -0.35938       -0.07812        0.00000
 BRILLOUIN|   143           0.00195       -0.35938       -0.04688        0.00000
 BRILLOUIN|   144           0.00195       -0.35938       -0.01562        0.00000
 BRILLOUIN|   145           0.00195       -0.35938        0.01562        0.00000
 BRILLOUIN|   146           0.00195       -0.35938        0.04688        0.00000
 BRILLOUIN|   147           0.00195       -0.35938        0.07812        0.00000
 BRILLOUIN|   148           0.00195       -0.35938        0.10938        0.00000
 BRILLOUIN|   149           0.00195       -0.35938        0.14062        0.00000
 BRILLOUIN|   150           0.00195       -0.35938        0.17188        0.00000
 BRILLOUIN|   151           0.00195       -0.35938        0.20312        0.00000
 BRILLOUIN|   152           0.00195       -0.35938        0.23438        0.00000
 BRILLOUIN|   153           0.00195       -0.35938        0.26562        0.00000
 BRILLOUIN|   154           0.00195       -0.35938        0.29688        0.00000
 BRILLOUIN|   155           0.00195       -0.35938        0.32812        0.00000
 BRILLOUIN|   156           0.00195       -0.35938        0.35938        0.00000
 BRILLOUIN|   157           0.00195       -0.35938        0.39062        0.00000
 BRILLOUIN|   158           0.00195       -0.35938        0.42188        0.00000
 BRILLOUIN|   159           0.00195       -0.35938        0.45312        0.00000
 BRILLOUIN|   160           0.00195       -0.35938        0.48438        0.00000
 BRILLOUIN|   161           0.00195       -0.32812       -0.48438        0.00000
 BRILLOUIN|   162           0.00195       -0.32812       -0.45312        0.00000
 BRILLOUIN|   163           0.00195       -0.32812       -0.42188        0.00000
 BRILLOUIN|   164           0.00195       -0.32812       -0.39062        0.00000
 BRILLOUIN|   165           0.00195       -0.32812       -0.35938        0.00000
 BRILLOUIN|   166           0.00195       -0.32812       -0.32812        0.00000
 BRILLOUIN|   167           0.00195       -0.32812       -0.29688        0.00000
 BRILLOUIN|   168           0.00195       -0.32812       -0.26562        0.00000
 BRILLOUIN|   169           0.00195       -0.32812       -0.23438        0.00000
 BRILLOUIN|   170           0.00195       -0.32812       -0.20312        0.00000
 BRILLOUIN|   171           0.00195       -0.32812       -0.17188        0.00000
 BRILLOUIN|   172           0.00195       -0.32812       -0.14062        0.00000
 BRILLOUIN|   173           0.00195       -0.32812       -0.10938        0.00000
 BRILLOUIN|   174           0.00195       -0.32812       -0.07812        0.00000
 BRILLOUIN|   175           0.00195       -0.32812       -0.04688        0.00000
 BRILLOUIN|   176           0.00195       -0.32812       -0.01562        0.00000
 BRILLOUIN|   177           0.00195       -0.32812        0.01562        0.00000
 BRILLOUIN|   178           0.00195       -0.32812        0.04688        0.00000
 BRILLOUIN|   179           0.00195       -0.32812        0.07812        0.00000
 BRILLOUIN|   180           0.00195       -0.32812        0.10938        0.00000
 BRILLOUIN|   181           0.00195       -0.32812        0.14062        0.00000
 BRILLOUIN|   182           0.00195       -0.32812        0.17188        0.00000
 BRILLOUIN|   183           0.00195       -0.32812        0.20312        0.00000
 BRILLOUIN|   184           0.00195       -0.32812        0.23438        0.00000
 BRILLOUIN|   185           0.00195       -0.32812        0.26562        0.00000
 BRILLOUIN|   186           0.00195       -0.32812        0.29688        0.00000
 BRILLOUIN|   187           0.00195       -0.32812        0.32812        0.00000
 BRILLOUIN|   188           0.00195       -0.32812        0.35938        0.00000
 BRILLOUIN|   189           0.00195       -0.32812        0.39062        0.00000
 BRILLOUIN|   190           0.00195       -0.32812        0.42188        0.00000
 BRILLOUIN|   191           0.00195       -0.32812        0.45312        0.00000
 BRILLOUIN|   192           0.00195       -0.32812        0.48438        0.00000
 BRILLOUIN|   193           0.00195       -0.29688       -0.48438        0.00000
 BRILLOUIN|   194           0.00195       -0.29688       -0.45312        0.00000
 BRILLOUIN|   195           0.00195       -0.29688       -0.42188        0.00000
 BRILLOUIN|   196           0.00195       -0.29688       -0.39062        0.00000
 BRILLOUIN|   197           0.00195       -0.29688       -0.35938        0.00000
 BRILLOUIN|   198           0.00195       -0.29688       -0.32812        0.00000
 BRILLOUIN|   199           0.00195       -0.29688       -0.29688        0.00000
 BRILLOUIN|   200           0.00195       -0.29688       -0.26562        0.00000
 BRILLOUIN|   201           0.00195       -0.29688       -0.23438        0.00000
 BRILLOUIN|   202           0.00195       -0.29688       -0.20312        0.00000
 BRILLOUIN|   203           0.00195       -0.29688       -0.17188        0.00000
 BRILLOUIN|   204           0.00195       -0.29688       -0.14062        0.00000
 BRILLOUIN|   205           0.00195       -0.29688       -0.10938        0.00000
 BRILLOUIN|   206           0.00195       -0.29688       -0.07812        0.00000
 BRILLOUIN|   207           0.00195       -0.29688       -0.04688        0.00000
 BRILLOUIN|   208           0.00195       -0.29688       -0.01562        0.00000
 BRILLOUIN|   209           0.00195       -0.29688        0.01562        0.00000
 BRILLOUIN|   210           0.00195       -0.29688        0.04688        0.00000
 BRILLOUIN|   211           0.00195       -0.29688        0.07812        0.00000
 BRILLOUIN|   212           0.00195       -0.29688        0.10938        0.00000
 BRILLOUIN|   213           0.00195       -0.29688        0.14062        0.00000
 BRILLOUIN|   214           0.00195       -0.29688        0.17188        0.00000
 BRILLOUIN|   215           0.00195       -0.29688        0.20312        0.00000
 BRILLOUIN|   216           0.00195       -0.29688        0.23438        0.00000
 BRILLOUIN|   217           0.00195       -0.29688        0.26562        0.00000
 BRILLOUIN|   218           0.00195       -0.29688        0.29688        0.00000
 BRILLOUIN|   219           0.00195       -0.29688        0.32812        0.00000
 BRILLOUIN|   220           0.00195       -0.29688        0.35938        0.00000
 BRILLOUIN|   221           0.00195       -0.29688        0.39062        0.00000
 BRILLOUIN|   222           0.00195       -0.29688        0.42188        0.00000
 BRILLOUIN|   223           0.00195       -0.29688        0.45312        0.00000
 BRILLOUIN|   224           0.00195       -0.29688        0.48438        0.00000
 BRILLOUIN|   225           0.00195       -0.26562       -0.48438        0.00000
 BRILLOUIN|   226           0.00195       -0.26562       -0.45312        0.00000
 BRILLOUIN|   227           0.00195       -0.26562       -0.42188        0.00000
 BRILLOUIN|   228           0.00195       -0.26562       -0.39062        0.00000
 BRILLOUIN|   229           0.00195       -0.26562       -0.35938        0.00000
 BRILLOUIN|   230           0.00195       -0.26562       -0.32812        0.00000
 BRILLOUIN|   231           0.00195       -0.26562       -0.29688        0.00000
 BRILLOUIN|   232           0.00195       -0.26562       -0.26562        0.00000
 BRILLOUIN|   233           0.00195       -0.26562       -0.23438        0.00000
 BRILLOUIN|   234           0.00195       -0.26562       -0.20312        0.00000
 BRILLOUIN|   235           0.00195       -0.26562       -0.17188        0.00000
 BRILLOUIN|   236           0.00195       -0.26562       -0.14062        0.00000
 BRILLOUIN|   237           0.00195       -0.26562       -0.10938        0.00000
 BRILLOUIN|   238           0.00195       -0.26562       -0.07812        0.00000
 BRILLOUIN|   239           0.00195       -0.26562       -0.04688        0.00000
 BRILLOUIN|   240           0.00195       -0.26562       -0.01562        0.00000
 BRILLOUIN|   241           0.00195       -0.26562        0.01562        0.00000
 BRILLOUIN|   242           0.00195       -0.26562        0.04688        0.00000
 BRILLOUIN|   243           0.00195       -0.26562        0.07812        0.00000
 BRILLOUIN|   244           0.00195       -0.26562        0.10938        0.00000
 BRILLOUIN|   245           0.00195       -0.26562        0.14062        0.00000
 BRILLOUIN|   246           0.00195       -0.26562        0.17188        0.00000
 BRILLOUIN|   247           0.00195       -0.26562        0.20312        0.00000
 BRILLOUIN|   248           0.00195       -0.26562        0.23438        0.00000
 BRILLOUIN|   249           0.00195       -0.26562        0.26562        0.00000
 BRILLOUIN|   250           0.00195       -0.26562        0.29688        0.00000
 BRILLOUIN|   251           0.00195       -0.26562        0.32812        0.00000
 BRILLOUIN|   252           0.00195       -0.26562        0.35938        0.00000
 BRILLOUIN|   253           0.00195       -0.26562        0.39062        0.00000
 BRILLOUIN|   254           0.00195       -0.26562        0.42188        0.00000
 BRILLOUIN|   255           0.00195       -0.26562        0.45312        0.00000
 BRILLOUIN|   256           0.00195       -0.26562        0.48438        0.00000
 BRILLOUIN|   257           0.00195       -0.23438       -0.48438        0.00000
 BRILLOUIN|   258           0.00195       -0.23438       -0.45312        0.00000
 BRILLOUIN|   259           0.00195       -0.23438       -0.42188        0.00000
 BRILLOUIN|   260           0.00195       -0.23438       -0.39062        0.00000
 BRILLOUIN|   261           0.00195       -0.23438       -0.35938        0.00000
 BRILLOUIN|   262           0.00195       -0.23438       -0.32812        0.00000
 BRILLOUIN|   263           0.00195       -0.23438       -0.29688        0.00000
 BRILLOUIN|   264           0.00195       -0.23438       -0.26562        0.00000
 BRILLOUIN|   265           0.00195       -0.23438       -0.23438        0.00000
 BRILLOUIN|   266           0.00195       -0.23438       -0.20312        0.00000
 BRILLOUIN|   267           0.00195       -0.23438       -0.17188        0.00000
 BRILLOUIN|   268           0.00195       -0.23438       -0.14062        0.00000
 BRILLOUIN|   269           0.00195       -0.23438       -0.10938        0.00000
 BRILLOUIN|   270           0.00195       -0.23438       -0.07812        0.00000
 BRILLOUIN|   271           0.00195       -0.23438       -0.04688        0.00000
 BRILLOUIN|   272           0.00195       -0.23438       -0.01562        0.00000
 BRILLOUIN|   273           0.00195       -0.23438        0.01562        0.00000
 BRILLOUIN|   274           0.00195       -0.23438        0.04688        0.00000
 BRILLOUIN|   275           0.00195       -0.23438        0.07812        0.00000
 BRILLOUIN|   276           0.00195       -0.23438        0.10938        0.00000
 BRILLOUIN|   277           0.00195       -0.23438        0.14062        0.00000
 BRILLOUIN|   278           0.00195       -0.23438        0.17188        0.00000
 BRILLOUIN|   279           0.00195       -0.23438        0.20312        0.00000
 BRILLOUIN|   280           0.00195       -0.23438        0.23438        0.00000
 BRILLOUIN|   281           0.00195       -0.23438        0.26562        0.00000
 BRILLOUIN|   282           0.00195       -0.23438        0.29688        0.00000
 BRILLOUIN|   283           0.00195       -0.23438        0.32812        0.00000
 BRILLOUIN|   284           0.00195       -0.23438        0.35938        0.00000
 BRILLOUIN|   285           0.00195       -0.23438        0.39062        0.00000
 BRILLOUIN|   286           0.00195       -0.23438        0.42188        0.00000
 BRILLOUIN|   287           0.00195       -0.23438        0.45312        0.00000
 BRILLOUIN|   288           0.00195       -0.23438        0.48438        0.00000
 BRILLOUIN|   289           0.00195       -0.20312       -0.48438        0.00000
 BRILLOUIN|   290           0.00195       -0.20312       -0.45312        0.00000
 BRILLOUIN|   291           0.00195       -0.20312       -0.42188        0.00000
 BRILLOUIN|   292           0.00195       -0.20312       -0.39062        0.00000
 BRILLOUIN|   293           0.00195       -0.20312       -0.35938        0.00000
 BRILLOUIN|   294           0.00195       -0.20312       -0.32812        0.00000
 BRILLOUIN|   295           0.00195       -0.20312       -0.29688        0.00000
 BRILLOUIN|   296           0.00195       -0.20312       -0.26562        0.00000
 BRILLOUIN|   297           0.00195       -0.20312       -0.23438        0.00000
 BRILLOUIN|   298           0.00195       -0.20312       -0.20312        0.00000
 BRILLOUIN|   299           0.00195       -0.20312       -0.17188        0.00000
 BRILLOUIN|   300           0.00195       -0.20312       -0.14062        0.00000
 BRILLOUIN|   301           0.00195       -0.20312       -0.10938        0.00000
 BRILLOUIN|   302           0.00195       -0.20312       -0.07812        0.00000
 BRILLOUIN|   303           0.00195       -0.20312       -0.04688        0.00000
 BRILLOUIN|   304           0.00195       -0.20312       -0.01562        0.00000
 BRILLOUIN|   305           0.00195       -0.20312        0.01562        0.00000
 BRILLOUIN|   306           0.00195       -0.20312        0.04688        0.00000
 BRILLOUIN|   307           0.00195       -0.20312        0.07812        0.00000
 BRILLOUIN|   308           0.00195       -0.20312        0.10938        0.00000
 BRILLOUIN|   309           0.00195       -0.20312        0.14062        0.00000
 BRILLOUIN|   310           0.00195       -0.20312        0.17188        0.00000
 BRILLOUIN|   311           0.00195       -0.20312        0.20312        0.00000
 BRILLOUIN|   312           0.00195       -0.20312        0.23438        0.00000
 BRILLOUIN|   313           0.00195       -0.20312        0.26562        0.00000
 BRILLOUIN|   314           0.00195       -0.20312        0.29688        0.00000
 BRILLOUIN|   315           0.00195       -0.20312        0.32812        0.00000
 BRILLOUIN|   316           0.00195       -0.20312        0.35938        0.00000
 BRILLOUIN|   317           0.00195       -0.20312        0.39062        0.00000
 BRILLOUIN|   318           0.00195       -0.20312        0.42188        0.00000
 BRILLOUIN|   319           0.00195       -0.20312        0.45312        0.00000
 BRILLOUIN|   320           0.00195       -0.20312        0.48438        0.00000
 BRILLOUIN|   321           0.00195       -0.17188       -0.48438        0.00000
 BRILLOUIN|   322           0.00195       -0.17188       -0.45312        0.00000
 BRILLOUIN|   323           0.00195       -0.17188       -0.42188        0.00000
 BRILLOUIN|   324           0.00195       -0.17188       -0.39062        0.00000
 BRILLOUIN|   325           0.00195       -0.17188       -0.35938        0.00000
 BRILLOUIN|   326           0.00195       -0.17188       -0.32812        0.00000
 BRILLOUIN|   327           0.00195       -0.17188       -0.29688        0.00000
 BRILLOUIN|   328           0.00195       -0.17188       -0.26562        0.00000
 BRILLOUIN|   329           0.00195       -0.17188       -0.23438        0.00000
 BRILLOUIN|   330           0.00195       -0.17188       -0.20312        0.00000
 BRILLOUIN|   331           0.00195       -0.17188       -0.17188        0.00000
 BRILLOUIN|   332           0.00195       -0.17188       -0.14062        0.00000
 BRILLOUIN|   333           0.00195       -0.17188       -0.10938        0.00000
 BRILLOUIN|   334           0.00195       -0.17188       -0.07812        0.00000
 BRILLOUIN|   335           0.00195       -0.17188       -0.04688        0.00000
 BRILLOUIN|   336           0.00195       -0.17188       -0.01562        0.00000
 BRILLOUIN|   337           0.00195       -0.17188        0.01562        0.00000
 BRILLOUIN|   338           0.00195       -0.17188        0.04688        0.00000
 BRILLOUIN|   339           0.00195       -0.17188        0.07812        0.00000
 BRILLOUIN|   340           0.00195       -0.17188        0.10938        0.00000
 BRILLOUIN|   341           0.00195       -0.17188        0.14062        0.00000
 BRILLOUIN|   342           0.00195       -0.17188        0.17188        0.00000
 BRILLOUIN|   343           0.00195       -0.17188        0.20312        0.00000
 BRILLOUIN|   344           0.00195       -0.17188        0.23438        0.00000
 BRILLOUIN|   345           0.00195       -0.17188        0.26562        0.00000
 BRILLOUIN|   346           0.00195       -0.17188        0.29688        0.00000
 BRILLOUIN|   347           0.00195       -0.17188        0.32812        0.00000
 BRILLOUIN|   348           0.00195       -0.17188        0.35938        0.00000
 BRILLOUIN|   349           0.00195       -0.17188        0.39062        0.00000
 BRILLOUIN|   350           0.00195       -0.17188        0.42188        0.00000
 BRILLOUIN|   351           0.00195       -0.17188        0.45312        0.00000
 BRILLOUIN|   352           0.00195       -0.17188        0.48438        0.00000
 BRILLOUIN|   353           0.00195       -0.14062       -0.48438        0.00000
 BRILLOUIN|   354           0.00195       -0.14062       -0.45312        0.00000
 BRILLOUIN|   355           0.00195       -0.14062       -0.42188        0.00000
 BRILLOUIN|   356           0.00195       -0.14062       -0.39062        0.00000
 BRILLOUIN|   357           0.00195       -0.14062       -0.35938        0.00000
 BRILLOUIN|   358           0.00195       -0.14062       -0.32812        0.00000
 BRILLOUIN|   359           0.00195       -0.14062       -0.29688        0.00000
 BRILLOUIN|   360           0.00195       -0.14062       -0.26562        0.00000
 BRILLOUIN|   361           0.00195       -0.14062       -0.23438        0.00000
 BRILLOUIN|   362           0.00195       -0.14062       -0.20312        0.00000
 BRILLOUIN|   363           0.00195       -0.14062       -0.17188        0.00000
 BRILLOUIN|   364           0.00195       -0.14062       -0.14062        0.00000
 BRILLOUIN|   365           0.00195       -0.14062       -0.10938        0.00000
 BRILLOUIN|   366           0.00195       -0.14062       -0.07812        0.00000
 BRILLOUIN|   367           0.00195       -0.14062       -0.04688        0.00000
 BRILLOUIN|   368           0.00195       -0.14062       -0.01562        0.00000
 BRILLOUIN|   369           0.00195       -0.14062        0.01562        0.00000
 BRILLOUIN|   370           0.00195       -0.14062        0.04688        0.00000
 BRILLOUIN|   371           0.00195       -0.14062        0.07812        0.00000
 BRILLOUIN|   372           0.00195       -0.14062        0.10938        0.00000
 BRILLOUIN|   373           0.00195       -0.14062        0.14062        0.00000
 BRILLOUIN|   374           0.00195       -0.14062        0.17188        0.00000
 BRILLOUIN|   375           0.00195       -0.14062        0.20312        0.00000
 BRILLOUIN|   376           0.00195       -0.14062        0.23438        0.00000
 BRILLOUIN|   377           0.00195       -0.14062        0.26562        0.00000
 BRILLOUIN|   378           0.00195       -0.14062        0.29688        0.00000
 BRILLOUIN|   379           0.00195       -0.14062        0.32812        0.00000
 BRILLOUIN|   380           0.00195       -0.14062        0.35938        0.00000
 BRILLOUIN|   381           0.00195       -0.14062        0.39062        0.00000
 BRILLOUIN|   382           0.00195       -0.14062        0.42188        0.00000
 BRILLOUIN|   383           0.00195       -0.14062        0.45312        0.00000
 BRILLOUIN|   384           0.00195       -0.14062        0.48438        0.00000
 BRILLOUIN|   385           0.00195       -0.10938       -0.48438        0.00000
 BRILLOUIN|   386           0.00195       -0.10938       -0.45312        0.00000
 BRILLOUIN|   387           0.00195       -0.10938       -0.42188        0.00000
 BRILLOUIN|   388           0.00195       -0.10938       -0.39062        0.00000
 BRILLOUIN|   389           0.00195       -0.10938       -0.35938        0.00000
 BRILLOUIN|   390           0.00195       -0.10938       -0.32812        0.00000
 BRILLOUIN|   391           0.00195       -0.10938       -0.29688        0.00000
 BRILLOUIN|   392           0.00195       -0.10938       -0.26562        0.00000
 BRILLOUIN|   393           0.00195       -0.10938       -0.23438        0.00000
 BRILLOUIN|   394           0.00195       -0.10938       -0.20312        0.00000
 BRILLOUIN|   395           0.00195       -0.10938       -0.17188        0.00000
 BRILLOUIN|   396           0.00195       -0.10938       -0.14062        0.00000
 BRILLOUIN|   397           0.00195       -0.10938       -0.10938        0.00000
 BRILLOUIN|   398           0.00195       -0.10938       -0.07812        0.00000
 BRILLOUIN|   399           0.00195       -0.10938       -0.04688        0.00000
 BRILLOUIN|   400           0.00195       -0.10938       -0.01562        0.00000
 BRILLOUIN|   401           0.00195       -0.10938        0.01562        0.00000
 BRILLOUIN|   402           0.00195       -0.10938        0.04688        0.00000
 BRILLOUIN|   403           0.00195       -0.10938        0.07812        0.00000
 BRILLOUIN|   404           0.00195       -0.10938        0.10938        0.00000
 BRILLOUIN|   405           0.00195       -0.10938        0.14062        0.00000
 BRILLOUIN|   406           0.00195       -0.10938        0.17188        0.00000
 BRILLOUIN|   407           0.00195       -0.10938        0.20312        0.00000
 BRILLOUIN|   408           0.00195       -0.10938        0.23438        0.00000
 BRILLOUIN|   409           0.00195       -0.10938        0.26562        0.00000
 BRILLOUIN|   410           0.00195       -0.10938        0.29688        0.00000
 BRILLOUIN|   411           0.00195       -0.10938        0.32812        0.00000
 BRILLOUIN|   412           0.00195       -0.10938        0.35938        0.00000
 BRILLOUIN|   413           0.00195       -0.10938        0.39062        0.00000
 BRILLOUIN|   414           0.00195       -0.10938        0.42188        0.00000
 BRILLOUIN|   415           0.00195       -0.10938        0.45312        0.00000
 BRILLOUIN|   416           0.00195       -0.10938        0.48438        0.00000
 BRILLOUIN|   417           0.00195       -0.07812       -0.48438        0.00000
 BRILLOUIN|   418           0.00195       -0.07812       -0.45312        0.00000
 BRILLOUIN|   419           0.00195       -0.07812       -0.42188        0.00000
 BRILLOUIN|   420           0.00195       -0.07812       -0.39062        0.00000
 BRILLOUIN|   421           0.00195       -0.07812       -0.35938        0.00000
 BRILLOUIN|   422           0.00195       -0.07812       -0.32812        0.00000
 BRILLOUIN|   423           0.00195       -0.07812       -0.29688        0.00000
 BRILLOUIN|   424           0.00195       -0.07812       -0.26562        0.00000
 BRILLOUIN|   425           0.00195       -0.07812       -0.23438        0.00000
 BRILLOUIN|   426           0.00195       -0.07812       -0.20312        0.00000
 BRILLOUIN|   427           0.00195       -0.07812       -0.17188        0.00000
 BRILLOUIN|   428           0.00195       -0.07812       -0.14062        0.00000
 BRILLOUIN|   429           0.00195       -0.07812       -0.10938        0.00000
 BRILLOUIN|   430           0.00195       -0.07812       -0.07812        0.00000
 BRILLOUIN|   431           0.00195       -0.07812       -0.04688        0.00000
 BRILLOUIN|   432           0.00195       -0.07812       -0.01562        0.00000
 BRILLOUIN|   433           0.00195       -0.07812        0.01562        0.00000
 BRILLOUIN|   434           0.00195       -0.07812        0.04688        0.00000
 BRILLOUIN|   435           0.00195       -0.07812        0.07812        0.00000
 BRILLOUIN|   436           0.00195       -0.07812        0.10938        0.00000
 BRILLOUIN|   437           0.00195       -0.07812        0.14062        0.00000
 BRILLOUIN|   438           0.00195       -0.07812        0.17188        0.00000
 BRILLOUIN|   439           0.00195       -0.07812        0.20312        0.00000
 BRILLOUIN|   440           0.00195       -0.07812        0.23438        0.00000
 BRILLOUIN|   441           0.00195       -0.07812        0.26562        0.00000
 BRILLOUIN|   442           0.00195       -0.07812        0.29688        0.00000
 BRILLOUIN|   443           0.00195       -0.07812        0.32812        0.00000
 BRILLOUIN|   444           0.00195       -0.07812        0.35938        0.00000
 BRILLOUIN|   445           0.00195       -0.07812        0.39062        0.00000
 BRILLOUIN|   446           0.00195       -0.07812        0.42188        0.00000
 BRILLOUIN|   447           0.00195       -0.07812        0.45312        0.00000
 BRILLOUIN|   448           0.00195       -0.07812        0.48438        0.00000
 BRILLOUIN|   449           0.00195       -0.04688       -0.48438        0.00000
 BRILLOUIN|   450           0.00195       -0.04688       -0.45312        0.00000
 BRILLOUIN|   451           0.00195       -0.04688       -0.42188        0.00000
 BRILLOUIN|   452           0.00195       -0.04688       -0.39062        0.00000
 BRILLOUIN|   453           0.00195       -0.04688       -0.35938        0.00000
 BRILLOUIN|   454           0.00195       -0.04688       -0.32812        0.00000
 BRILLOUIN|   455           0.00195       -0.04688       -0.29688        0.00000
 BRILLOUIN|   456           0.00195       -0.04688       -0.26562        0.00000
 BRILLOUIN|   457           0.00195       -0.04688       -0.23438        0.00000
 BRILLOUIN|   458           0.00195       -0.04688       -0.20312        0.00000
 BRILLOUIN|   459           0.00195       -0.04688       -0.17188        0.00000
 BRILLOUIN|   460           0.00195       -0.04688       -0.14062        0.00000
 BRILLOUIN|   461           0.00195       -0.04688       -0.10938        0.00000
 BRILLOUIN|   462           0.00195       -0.04688       -0.07812        0.00000
 BRILLOUIN|   463           0.00195       -0.04688       -0.04688        0.00000
 BRILLOUIN|   464           0.00195       -0.04688       -0.01562        0.00000
 BRILLOUIN|   465           0.00195       -0.04688        0.01562        0.00000
 BRILLOUIN|   466           0.00195       -0.04688        0.04688        0.00000
 BRILLOUIN|   467           0.00195       -0.04688        0.07812        0.00000
 BRILLOUIN|   468           0.00195       -0.04688        0.10938        0.00000
 BRILLOUIN|   469           0.00195       -0.04688        0.14062        0.00000
 BRILLOUIN|   470           0.00195       -0.04688        0.17188        0.00000
 BRILLOUIN|   471           0.00195       -0.04688        0.20312        0.00000
 BRILLOUIN|   472           0.00195       -0.04688        0.23438        0.00000
 BRILLOUIN|   473           0.00195       -0.04688        0.26562        0.00000
 BRILLOUIN|   474           0.00195       -0.04688        0.29688        0.00000
 BRILLOUIN|   475           0.00195       -0.04688        0.32812        0.00000
 BRILLOUIN|   476           0.00195       -0.04688        0.35938        0.00000
 BRILLOUIN|   477           0.00195       -0.04688        0.39062        0.00000
 BRILLOUIN|   478           0.00195       -0.04688        0.42188        0.00000
 BRILLOUIN|   479           0.00195       -0.04688        0.45312        0.00000
 BRILLOUIN|   480           0.00195       -0.04688        0.48438        0.00000
 BRILLOUIN|   481           0.00195       -0.01562       -0.48438        0.00000
 BRILLOUIN|   482           0.00195       -0.01562       -0.45312        0.00000
 BRILLOUIN|   483           0.00195       -0.01562       -0.42188        0.00000
 BRILLOUIN|   484           0.00195       -0.01562       -0.39062        0.00000
 BRILLOUIN|   485           0.00195       -0.01562       -0.35938        0.00000
 BRILLOUIN|   486           0.00195       -0.01562       -0.32812        0.00000
 BRILLOUIN|   487           0.00195       -0.01562       -0.29688        0.00000
 BRILLOUIN|   488           0.00195       -0.01562       -0.26562        0.00000
 BRILLOUIN|   489           0.00195       -0.01562       -0.23438        0.00000
 BRILLOUIN|   490           0.00195       -0.01562       -0.20312        0.00000
 BRILLOUIN|   491           0.00195       -0.01562       -0.17188        0.00000
 BRILLOUIN|   492           0.00195       -0.01562       -0.14062        0.00000
 BRILLOUIN|   493           0.00195       -0.01562       -0.10938        0.00000
 BRILLOUIN|   494           0.00195       -0.01562       -0.07812        0.00000
 BRILLOUIN|   495           0.00195       -0.01562       -0.04688        0.00000
 BRILLOUIN|   496           0.00195       -0.01562       -0.01562        0.00000
 BRILLOUIN|   497           0.00195       -0.01562        0.01562        0.00000
 BRILLOUIN|   498           0.00195       -0.01562        0.04688        0.00000
 BRILLOUIN|   499           0.00195       -0.01562        0.07812        0.00000
 BRILLOUIN|   500           0.00195       -0.01562        0.10938        0.00000
 BRILLOUIN|   501           0.00195       -0.01562        0.14062        0.00000
 BRILLOUIN|   502           0.00195       -0.01562        0.17188        0.00000
 BRILLOUIN|   503           0.00195       -0.01562        0.20312        0.00000
 BRILLOUIN|   504           0.00195       -0.01562        0.23438        0.00000
 BRILLOUIN|   505           0.00195       -0.01562        0.26562        0.00000
 BRILLOUIN|   506           0.00195       -0.01562        0.29688        0.00000
 BRILLOUIN|   507           0.00195       -0.01562        0.32812        0.00000
 BRILLOUIN|   508           0.00195       -0.01562        0.35938        0.00000
 BRILLOUIN|   509           0.00195       -0.01562        0.39062        0.00000
 BRILLOUIN|   510           0.00195       -0.01562        0.42188        0.00000
 BRILLOUIN|   511           0.00195       -0.01562        0.45312        0.00000
 BRILLOUIN|   512           0.00195       -0.01562        0.48438        0.00000
 *******************************************************************************

 *******************************************************************************
 *******************************************************************************
 **                                                                           **
 **     #####                         ##              ##                      **
 **    ##   ##            ##          ##              ##                      **
 **   ##     ##                       ##            ######                    **
 **   ##     ##  ##   ##  ##   #####  ##  ##   ####   ##    #####    #####    **
 **   ##     ##  ##   ##  ##  ##      ## ##   ##      ##   ##   ##  ##   ##   **
 **   ##  ## ##  ##   ##  ##  ##      ####     ###    ##   ######   ######    **
 **    ##  ###   ##   ##  ##  ##      ## ##      ##   ##   ##       ##        **
 **     #######   #####   ##   #####  ##  ##  ####    ##    #####   ##        **
 **           ##                                                    ##        **
 **                                                                           **
 **                                                ... make the atoms dance   **
 **                                                                           **
 **            Copyright (C) by CP2K developers group (2000-2024)             **
 **                      J. Chem. Phys. 152, 194103 (2020)                    **
 **                                                                           **
 *******************************************************************************

 DFT| Spin restricted Kohn-Sham (RKS) calculation                            RKS
 DFT| Multiplicity                                                             1
 DFT| Number of spin states                                                    1
 DFT| Charge                                                                   0
 DFT| Self-interaction correction (SIC)                                       NO
 DFT| Cutoffs: density                                              1.000000E-10
 DFT|          gradient                                             1.000000E-10
 DFT|          tau                                                  1.000000E-10
 DFT|          cutoff_smoothing_range                               0.000000E+00
 DFT| XC density smoothing                                                  NONE
 DFT| XC derivatives                                                          PW

 FUNCTIONAL| PBE:
 FUNCTIONAL| J.P.Perdew, K.Burke, M.Ernzerhof, Phys. Rev. Letter, vol. 77, n 18,
 FUNCTIONAL|  pp. 3865-3868, (1996) {spin unpolarized}                          


 QS| Method:                                                                GAPW
 QS| Density plane wave grid type                        NON-SPHERICAL FULLSPACE
 QS| Number of grid levels:                                                    4
 QS| Density cutoff [a.u.]:                                                250.0
 QS| Multi grid cutoff [a.u.]: 1) grid level                               250.0
 QS|                           2) grid level                                83.3
 QS|                           3) grid level                                27.8
 QS|                           4) grid level                                 9.3
 QS| Grid level progression factor:                                          3.0
 QS| Relative density cutoff [a.u.]:                                        50.0
 QS| Interaction thresholds: eps_pgf_orb:                                1.0E-12
 QS|                         eps_filter_matrix:                          0.0E+00
 QS|                         eps_core_charge:                            1.0E-14
 QS|                         eps_rho_gspace:                             1.0E-12
 QS|                         eps_rho_rspace:                             1.0E-12
 QS|                         eps_gvg_rspace:                             1.0E-06
 QS|                         eps_ppl:                                    1.0E-02
 QS|                         eps_ppnl:                                   1.0E-08
 QS| GAPW|      One center basis from orbital basis primitives
 QS| GAPW|                   eps_fit:                                    1.0E-04
 QS| GAPW|                   eps_iso:                                    1.0E-12
 QS| GAPW|                   eps_svd:                                    1.0E-08
 QS| GAPW|                   eps_cpc:                                    1.0E-12
 QS| GAPW|   atom-r-grid: quadrature:                                     GC_LOG
 QS| GAPW|      atom-s-grid:  max l :                                          6
 QS| GAPW|      max_l_rho0 :                                                   2
 QS| GAPW|      At least one kind is NOT PAW, i.e. it has only soft AO 
 QS| GAPW|      The NOT PAW atoms are treated fully GPW


 ATOMIC KIND INFORMATION

  1. Atomic kind: W                                     Number of atoms:       1

     Orbital Basis Set                                     aug-SZV-MOLOPT-SR-GTH

       Number of orbital shell sets:                                           1
       Number of orbital shells:                                               8
       Number of primitive Cartesian functions:                                6
       Number of Cartesian basis functions:                                   31
       Number of spherical basis functions:                                   26
       Norm type:                                                              2

       Normalised Cartesian orbitals:

                        Set   Shell   Orbital            Exponent    Coefficient

                          1       1    2s                0.074662      -0.014288
                                                         0.214446      -0.013622
                                                         0.501100      -0.158409
                                                         1.106150      -0.674409
                                                         2.893835       0.343542
                                                         3.103253       0.529378

                          1       2    3s                0.074662       0.097559
                                                         0.214446       0.068377
                                                         0.501100      -0.211692
                                                         1.106150      -0.477565
                                                         2.893835       0.569551
                                                         3.103253      -0.097470

                          1       3    4s                0.074662       0.110154
                                                         0.214446       0.032057
                                                         0.501100      -0.205812
                                                         1.106150       0.074053
                                                         2.893835       0.052359
                                                         3.103253       0.028561

                          1       4    3px               0.074662       0.000342
                                                         0.214446      -0.010443
                                                         0.501100      -0.267354
                                                         1.106150      -0.965857
                                                         2.893835      -5.556403
                                                         3.103253       6.695558
                          1       4    3py               0.074662       0.000342
                                                         0.214446      -0.010443
                                                         0.501100      -0.267354
                                                         1.106150      -0.965857
                                                         2.893835      -5.556403
                                                         3.103253       6.695558
                          1       4    3pz               0.074662       0.000342
                                                         0.214446      -0.010443
                                                         0.501100      -0.267354
                                                         1.106150      -0.965857
                                                         2.893835      -5.556403
                                                         3.103253       6.695558

                          1       5    4px               0.074662      -0.025823
                                                         0.214446      -0.106983
                                                         0.501100      -0.110188
                                                         1.106150       0.090439
                                                         2.893835       0.313766
                                                         3.103253       0.343398
                          1       5    4py               0.074662      -0.025823
                                                         0.214446      -0.106983
                                                         0.501100      -0.110188
                                                         1.106150       0.090439
                                                         2.893835       0.313766
                                                         3.103253       0.343398
                          1       5    4pz               0.074662      -0.025823
                                                         0.214446      -0.106983
                                                         0.501100      -0.110188
                                                         1.106150       0.090439
                                                         2.893835       0.313766
                                                         3.103253       0.343398

                          1       6    4dx2              0.074662       0.002139
                                                         0.214446       0.042391
                                                         0.501100       0.198591
                                                         1.106150       0.570193
                                                         2.893835       1.052039
                                                         3.103253      -0.912703
                          1       6    4dxy              0.074662       0.003705
                                                         0.214446       0.073424
                                                         0.501100       0.343970
                                                         1.106150       0.987602
                                                         2.893835       1.822186
                                                         3.103253      -1.580848
                          1       6    4dxz              0.074662       0.003705
                                                         0.214446       0.073424
                                                         0.501100       0.343970
                                                         1.106150       0.987602
                                                         2.893835       1.822186
                                                         3.103253      -1.580848
                          1       6    4dy2              0.074662       0.002139
                                                         0.214446       0.042391
                                                         0.501100       0.198591
                                                         1.106150       0.570193
                                                         2.893835       1.052039
                                                         3.103253      -0.912703
                          1       6    4dyz              0.074662       0.003705
                                                         0.214446       0.073424
                                                         0.501100       0.343970
                                                         1.106150       0.987602
                                                         2.893835       1.822186
                                                         3.103253      -1.580848
                          1       6    4dz2              0.074662       0.002139
                                                         0.214446       0.042391
                                                         0.501100       0.198591
                                                         1.106150       0.570193
                                                         2.893835       1.052039
                                                         3.103253      -0.912703

                          1       7    5dx2              0.074662      -0.005539
                                                         0.214446      -0.055672
                                                         0.501100      -0.201982
                                                         1.106150       0.147656
                                                         2.893835       0.458842
                                                         3.103253       0.902631
                          1       7    5dxy              0.074662      -0.009594
                                                         0.214446      -0.096427
                                                         0.501100      -0.349843
                                                         1.106150       0.255748
                                                         2.893835       0.794738
                                                         3.103253       1.563402
                          1       7    5dxz              0.074662      -0.009594
                                                         0.214446      -0.096427
                                                         0.501100      -0.349843
                                                         1.106150       0.255748
                                                         2.893835       0.794738
                                                         3.103253       1.563402
                          1       7    5dy2              0.074662      -0.005539
                                                         0.214446      -0.055672
                                                         0.501100      -0.201982
                                                         1.106150       0.147656
                                                         2.893835       0.458842
                                                         3.103253       0.902631
                          1       7    5dyz              0.074662      -0.009594
                                                         0.214446      -0.096427
                                                         0.501100      -0.349843
                                                         1.106150       0.255748
                                                         2.893835       0.794738
                                                         3.103253       1.563402
                          1       7    5dz2              0.074662      -0.005539
                                                         0.214446      -0.055672
                                                         0.501100      -0.201982
                                                         1.106150       0.147656
                                                         2.893835       0.458842
                                                         3.103253       0.902631

                          1       8    5fx3              0.074662       0.000325
                                                         0.214446       0.032337
                                                         0.501100       0.095319
                                                         1.106150       0.075344
                                                         2.893835       0.567697
                                                         3.103253       0.419733
                          1       8    5fx2y             0.074662       0.000727
                                                         0.214446       0.072308
                                                         0.501100       0.213140
                                                         1.106150       0.168474
                                                         2.893835       1.269409
                                                         3.103253       0.938552
                          1       8    5fx2z             0.074662       0.000727
                                                         0.214446       0.072308
                                                         0.501100       0.213140
                                                         1.106150       0.168474
                                                         2.893835       1.269409
                                                         3.103253       0.938552
                          1       8    5fxy2             0.074662       0.000727
                                                         0.214446       0.072308
                                                         0.501100       0.213140
                                                         1.106150       0.168474
                                                         2.893835       1.269409
                                                         3.103253       0.938552
                          1       8    5fxyz             0.074662       0.001260
                                                         0.214446       0.125240
                                                         0.501100       0.369169
                                                         1.106150       0.291805
                                                         2.893835       2.198681
                                                         3.103253       1.625620
                          1       8    5fxz2             0.074662       0.000727
                                                         0.214446       0.072308
                                                         0.501100       0.213140
                                                         1.106150       0.168474
                                                         2.893835       1.269409
                                                         3.103253       0.938552
                          1       8    5fy3              0.074662       0.000325
                                                         0.214446       0.032337
                                                         0.501100       0.095319
                                                         1.106150       0.075344
                                                         2.893835       0.567697
                                                         3.103253       0.419733
                          1       8    5fy2z             0.074662       0.000727
                                                         0.214446       0.072308
                                                         0.501100       0.213140
                                                         1.106150       0.168474
                                                         2.893835       1.269409
                                                         3.103253       0.938552
                          1       8    5fyz2             0.074662       0.000727
                                                         0.214446       0.072308
                                                         0.501100       0.213140
                                                         1.106150       0.168474
                                                         2.893835       1.269409
                                                         3.103253       0.938552
                          1       8    5fz3              0.074662       0.000325
                                                         0.214446       0.032337
                                                         0.501100       0.095319
                                                         1.106150       0.075344
                                                         2.893835       0.567697
                                                         3.103253       0.419733

     RI Auxiliary Basis Set             RI_aug-SZV-MOLOPT-GTH_N_RI_076_s_p_d_f_g

       Number of orbital shell sets:                                          18
       Number of orbital shells:                                              18
       Number of primitive Cartesian functions:                               18
       Number of Cartesian basis functions:                                  107
       Number of spherical basis functions:                                   76
       Norm type:                                                              2

       Normalised Cartesian orbitals:

                        Set   Shell   Orbital            Exponent    Coefficient

                          1       1    1s                0.189053       0.204337

                          2       1    7px               0.264845       0.270819
                          2       1    7py               0.264845       0.270819
                          2       1    7pz               0.264845       0.270819

                          3       1   11dx2              0.294055       0.193268
                          3       1   11dxy              0.294055       0.334750
                          3       1   11dxz              0.294055       0.334750
                          3       1   11dy2              0.294055       0.193268
                          3       1   11dyz              0.294055       0.334750
                          3       1   11dz2              0.294055       0.193268

                          4       1   16gx4              0.336043       0.055465
                          4       1   16gx3y             0.336043       0.146747
                          4       1   16gx3z             0.336043       0.146747
                          4       1   16gx2y2            0.336043       0.189449
                          4       1   16gx2yz            0.336043       0.328136
                          4       1   16gx2z2            0.336043       0.189449
                          4       1   16gxy3             0.336043       0.146747
                          4       1   16gxy2z            0.336043       0.328136
                          4       1   16gxyz2            0.336043       0.328136
                          4       1   16gxz3             0.336043       0.146747
                          4       1   16gy4              0.336043       0.055465
                          4       1   16gy3z             0.336043       0.146747
                          4       1   16gy2z2            0.336043       0.189449
                          4       1   16gyz3             0.336043       0.146747
                          4       1   16gz4              0.336043       0.055465

                          5       1    2s                0.362163       0.332727

                          6       1   14fx3              0.426326       0.216209
                          6       1   14fx2y             0.426326       0.483457
                          6       1   14fx2z             0.426326       0.483457
                          6       1   14fxy2             0.426326       0.483457
                          6       1   14fxyz             0.426326       0.837372
                          6       1   14fxz2             0.426326       0.483457
                          6       1   14fy3              0.426326       0.216209
                          6       1   14fy2z             0.426326       0.483457
                          6       1   14fyz2             0.426326       0.483457
                          6       1   14fz3              0.426326       0.216209

                          7       1   18hx5              0.587886       0.131992
                          7       1   18hx4y             0.587886       0.395975
                          7       1   18hx4z             0.587886       0.395975
                          7       1   18hx3y2            0.587886       0.604862
                          7       1   18hx3yz            0.587886       1.047651
                          7       1   18hx3z2            0.587886       0.604862
                          7       1   18hx2y3            0.587886       0.604862
                          7       1   18hx2y2z           0.587886       1.352512
                          7       1   18hx2yz2           0.587886       1.352512
                          7       1   18hx2z3            0.587886       0.604862
                          7       1   18hxy4             0.587886       0.395975
                          7       1   18hxy3z            0.587886       1.047651
                          7       1   18hxy2z2           0.587886       1.352512
                          7       1   18hxyz3            0.587886       1.047651
                          7       1   18hxz4             0.587886       0.395975
                          7       1   18hy5              0.587886       0.131992
                          7       1   18hy4z             0.587886       0.395975
                          7       1   18hy3z2            0.587886       0.604862
                          7       1   18hy2z3            0.587886       0.604862
                          7       1   18hyz4             0.587886       0.395975
                          7       1   18hz5              0.587886       0.131992

                          8       1    8px               0.682676       0.884522
                          8       1    8py               0.682676       0.884522
                          8       1    8pz               0.682676       0.884522

                          9       1    3s                0.703338       0.547372

                         10       1   12dx2              0.951478       1.508716
                         10       1   12dxy              0.951478       2.613172
                         10       1   12dxz              0.951478       2.613172
                         10       1   12dy2              0.951478       1.508716
                         10       1   12dyz              0.951478       2.613172
[...]
 LIBXSMM: Accelerating Small Matrix Multiplications by Runtime Code Generation.
 https://doi.org/10.1109/SC.2016.83

 J. Hutter, M. Iannuzzi, F. Schiffmann, J. VandeVondele.
 WIREs Comput Mol Sci. 4, 15-25 (2014).
 CP2K: atomistic simulations of condensed matter systems.
 https://doi.org/10.1002/wcms.1159

 U. Borstnik, J. VandeVondele, V. Weber, J. Hutter.
 Parallel Comput. 40, 47-58 (2014).
 Sparse matrix multiplication: The distributed block-compressed sparse row 
 library.
 https://doi.org/10.1016/j.parco.2014.03.012

 A. Marek, V. Blum, R. Johanni, V. Havu, B. Lang, T. Auckenthaler, A. Heinecke, 
 H. Bungartz, H. Lederer.
 J. Phys. Condens. Matter 26, 213201 (2014).
 The ELPA library: scalable parallel eigenvalue solutions for electronic 
 structure theory and computational science.
 https://doi.org/10.1088/0953-8984/26/21/213201

 J. VandeVondele, J. Hutter.
 J. Chem. Phys. 127, 114105 (2007).
 Gaussian basis sets for accurate calculations on molecular systems in gas and 
 condensed phases.
 https://doi.org/10.1063/1.2770708

 M. Krack.
 Theor. Chem. Acc. 114, 145-152 (2005).
 Pseudopotentials for H to Kr optimized for gradient-corrected 
 exchange-correlation functionals.
 https://doi.org/10.1007/s00214-005-0655-y

 M. Frigo, S. G. Johnson.
 Proc. IEEE 93, 216-231 (2005).
 The design and implementation of FFTW3.
 https://doi.org/10.1109/JPROC.2004.840301

 M. Krack, M. Parrinello.
 Phys. Chem. Chem. Phys. 2, 2105-2112 (2000).
 All-electron ab-initio molecular dynamics.
 https://doi.org/10.1039/b001167n

 G. Lippert, J. Hutter, M. Parrinello.
 Theor. Chem. Acc. 103, 124-140 (1999).
 The Gaussian and augmented-plane-wave density functional method for ab initio 
 molecular dynamics simulations.
 https://doi.org/10.1007/s002140050523

 C. Hartwigsen, S. Goedecker, J. Hutter.
 Phys. Rev. B 58, 3641-3662 (1998).
 Relativistic separable dual-space Gaussian pseudopotentials from H to Rn.
 https://doi.org/10.1103/PhysRevB.58.3641

 S. Goedecker, M. Teter, J. Hutter.
 Phys. Rev. B 54, 1703-1710 (1996).
 Separable dual-space Gaussian pseudopotentials.
 https://doi.org/10.1103/PhysRevB.54.1703

 J. P. Perdew, K. Burke, M. Ernzerhof.
 Phys. Rev. Lett. 77, 3865-3868 (1996).
 Generalized gradient approximation made simple.
 https://doi.org/10.1103/PhysRevLett.77.3865


 -------------------------------------------------------------------------------
 -                                                                             -
 -                                T I M I N G                                  -
 -                                                                             -
 -------------------------------------------------------------------------------
 SUBROUTINE                       CALLS  ASD         SELF TIME        TOTAL TIME
                                MAXIMUM       AVERAGE  MAXIMUM  AVERAGE  MAXIMUM
 CP2K                                 1  1.0     0.09     0.25 14333.32 14333.38
 qs_energies                          1  2.0     0.12     0.68 14331.54 14332.11
 qs_energies_properties               1  3.0     0.00     0.00 14057.76 14057.82
 post_scf_bandstructure               1  4.0     0.01     0.03 14057.76 14057.82
 gw                                   1  5.0     0.00     0.02 13986.92 13986.96
 gw_calc_small_cell_full_kp           1  6.0     0.00     0.00 13859.31 13859.37
 dbt_total                      *******  9.9    30.71    33.38  5526.83  6983.24
 compute_W_real_space                 1  7.0     8.20     8.53  6016.36  6016.39
 dbt_contract                   ******* 10.6    43.05    45.08  4436.26  5878.01
 dbt_tas_multiply               4834408 13.0     4.10     4.43  4143.68  5590.85
 dbt_tas_total                  4834408 14.0   196.32   204.54  4141.14  5588.35
 compute_Minv_and_Vsqrt               1  8.0     0.10     0.12  5355.84  5356.05
 build_2c_coulomb_matrix_kp_sma       2  9.0     3.07     3.62  5345.79  5345.81
 build_2c_coulomb_matrix_kp_sma  655360 10.0  4558.61  4658.63  4558.61  4658.63
 compute_Sigma_c                      1  7.0     0.00     0.00  4178.96  4178.98
 compute_chi                          1  7.0     0.07     0.08  3424.78  3424.83
 dbt_tas_dbm                    4834408 15.0     3.75     4.05  1731.40  3177.09
 dbm_multiply                   4834408 17.0  1723.07  3168.66  1723.07  3168.66
 contract_to_Sigma                  549  8.0    38.54    41.55  2018.15  2699.84
 mp_sync                        ******* 11.7  1868.10  2136.53  1868.10  2136.53
 contract_M_occ_vir_to_chi          270  8.0    68.92    78.26  1407.73  1716.73
 contract_to_Sigma_3c_x_G       5057205  9.0     5.38     5.67  1209.96  1563.81
 G_times_3c                       26040  8.0     8.99     9.22  1124.17  1485.99
 dbt_copy                       ******* 11.1    32.89    36.51  1174.65  1467.81
 dbt_tas_mm_2                   1627918 16.1     1.63     1.88   763.38  1342.31
 contract_W                         279  8.0     7.50     7.72  1207.92  1314.75
 dbt_tas_estimate_result_nze    2417204 13.5   389.64   405.13  1221.92  1267.86
 dbt_tas_mm_3T                  1991952 16.2     1.11     1.26   631.98  1137.66
 contract_to_Sigma_contract       26474  9.0    10.81    11.85   756.00  1083.82
 dbt_reshape                    8359974 12.0   649.93   786.62   826.13  1048.35
 get_t_3c_int                   7779609  9.6    18.91    20.10   577.15   732.01
 dbt_tas_mm_1N                  1291550 15.5     0.66     0.72   331.54   692.65
 reshape_mm_small               4834408 15.0   283.24   298.05   542.76   562.56
 mp_sum_dm                       655416 10.0   446.91   496.47   446.91   496.47
 dbcsr_complete_redistribute     456345  9.7     7.31    12.24   327.71   389.78
 copy_dbcsr_to_fm                251742  8.1     1.30     1.37   333.12   334.54
 dbt_tas_reshape                5424958 15.5    23.01    24.05   289.70   313.88
 dbt_tas_create_split           ******* 16.0     7.81     8.49   295.45   309.49
 dbt_tas_create_split_rows_or_c ******* 17.0    29.89    31.83   287.64   301.24
 convert_to_new_pgrid           ******* 15.0    50.95    52.98   246.84   286.71
 reshape_mm_compatible          4834408 15.0    39.94    42.35   264.56   275.51
 scf_env_do_scf                       1  3.0     0.00     0.00   273.38   273.38
 scf_env_do_scf_inner_loop           57  4.0     0.01     0.01   273.38   273.38
 qs_scf_new_mos_kp                   57  5.0     0.00     0.03   269.55   269.57
 do_general_diag_kp                  57  6.0     0.28     0.29   269.55   269.57
 fm_to_local_tensor              146072  9.0     1.14     1.28   206.81   253.96
 G_occ_vir                          121  8.0     0.27     0.32   247.85   248.63
 dbt_tas_reserve_blocks_index   ******* 15.6    23.61    24.49   156.25   237.84
 dbm_copy                       9668816 16.0   195.89   234.45   195.89   234.45
 dbcsr_desymmetrize_deep         382542  8.5     2.87     3.69   225.41   228.53
 add_rs_to_ikp                  *******  9.8   208.49   226.18   208.49   226.18
 dbm_reserve_blocks             ******* 16.5   142.26   224.33   142.26   224.33
 add_V_L                         327680 10.0     9.20   221.45     9.20   221.45
 dbt_tas_distribution_new       ******* 15.8   109.26   112.50   207.50   214.75
 trafo_rs_to_ikp                  14346  8.1     5.63     6.29   199.86   213.47
 copy_fm_to_dbcsr                204603  9.4     0.42     0.44   140.04   202.42
 dbt_remap                       317095 11.0    29.37    31.49   178.60   201.01
 change_split                   6661062 15.4    13.13    14.15   184.81   194.16
 mp_alltoall_i22                 838887 10.1   124.95   187.60   124.95   187.60
 add_ikp_to_rs                  *******  9.9   169.19   184.53   169.19   184.53
 dbt_copy_nocomm                1583280 11.0   115.03   147.89   140.65   182.40
 mp_cart_create                 ******* 16.7   156.73   161.56   169.47   174.80
 dbt_tas_replicate              4834408 15.0    77.55    82.32   163.46   170.67
 add_ikp_to_all_rs                13151  8.0     4.82     5.21   154.75   170.36
 dbt_tas_copy                   5067162 12.6   101.71   122.65   136.90   166.92
 mp_alltoall_d11v               2516779 10.6   164.63   166.02   164.63   166.02
 dbt_reserve_blocks_index_array 9490824 13.0     5.52     6.46    98.32   163.40
 dbt_reserve_blocks_index       9657197 13.9     7.60     8.88    96.34   161.04
 mp_alltoall_i11v               1751577 10.4   158.24   158.34   158.24   158.34
 fm_to_local_array                  934  8.1    33.81    35.20   151.26   152.14
 local_dbt_to_global_fm              91  8.0     0.14     0.15   151.75   151.75
 dbt_tas_reshape_buffer_fill    5424958 16.5   132.93   145.97   132.93   145.97
 compute_Sigma_x                      1  7.0     0.00     0.00   141.53   141.55
 dbm_filter                     7093277 14.9   132.25   139.29   132.25   139.29
 dbt_communicate_buffer         8359974 13.0    95.22   133.33    95.22   133.33
 parallel_gemm_cfm               280952  8.9     0.15     0.19   116.04   132.40
 parallel_gemm_cfm_cosma         280952  9.9   115.88   132.25   115.88   132.25
 create_and_init_bs_env_for_gw        1  6.0     0.01     0.04   127.61   127.63
 mp_sum_dm3                        1052  9.0   114.14   121.88   114.14   121.88
 compute_3c_integrals                 1  7.0     0.03     0.04   103.87   103.89
 build_3c_integrals                   1  8.0    98.21    98.91   102.27   102.94
 dbt_tas_reshape_buffer_obtain  5424958 16.5    66.70    72.79    91.69    99.30
 compute_QP_energies                  1  7.0     0.03     0.04    97.68    97.70
 mp_comm_dup                    ******* 18.5    86.21    91.22    92.10    97.50
 trafo_to_k_and_nn                71492  8.0     0.24     0.29    97.27    97.30
 global_matrix_to_local_matrix   146072 10.0     1.02     2.04    80.70    95.49
 dbt_tas_create_new             ******* 15.3    83.26    86.57    83.26    86.57
 power                            27242  8.0    81.94    83.62    81.94    83.62
 dbt_permute_index              ******* 12.2    61.86    68.52    70.97    78.44
 dbt_tas_reserve_blocks_templat 9691744 14.1    13.77    16.75    57.21    76.45
 hybrid_alltoall_any             382542  9.5     0.92     0.98    74.83    75.49
 send_data                       146072 11.0     0.08     0.09    57.19    72.85
 communicate_buffer              146072 12.0     0.89     8.33    57.11    72.76
 mp_waitall_1                   1314491 11.3    55.94    72.21    55.94    72.21
 mult_W_with_Minv                    30  8.0     0.51     0.56    71.62    71.67
 mp_comm_split_direct           ******* 18.0    61.43    64.07    65.42    68.16
 fm_MWM_R_t_to_local_tensor_W_R      30  8.0     0.02     0.02    63.18    63.18
 mp_comm_free                   ******* 15.7    60.56    62.99    60.56    62.99
 add_R                          *******  9.3    41.79    44.68    58.58    62.61
 mp_sum_dv                        78700  8.9     8.05    61.81     8.05    61.81
 get_V_tr_R                          34  9.0     0.08     0.09    59.87    60.29
 fm_add_ikp_to_rs                123904  9.0    35.87    36.71    55.16    57.60
 mp_cart_sub                     503563 10.1    49.35    49.42    49.35    49.42
 kpoint_density_transform            57  7.0     0.09     0.09    48.56    48.60
 dbm_add                        4834408 15.0    44.93    48.03    44.93    48.03
 dbt_align_index                7251612 11.5     7.22     7.88    43.76    46.17
 dbt_reserve_blocks_template    1583280 12.0     2.17     2.91    25.62    43.77
 fm_trafo_rs_to_ikp               71492  9.0    21.06    22.05    35.32    39.78
 dbt_tas_merge                  1627918 15.1    23.74    27.00    32.54    36.92
 dbt_tas_mp_comm                2712479 13.2     4.03     4.30    34.97    36.60
 cp_cfm_heevd                      5600  7.6    36.50    36.57    36.50    36.57
 get_data                        146072 11.0     2.56    36.12     2.77    36.38
 dos_pdos_ldos                        1  5.0     0.00     0.00    35.99    36.02
 reshape_mm_template             634190 15.5    20.31    21.54    32.71    34.64
 SOC_ev                            2344  6.0     0.02     0.03    32.23    32.27
 local_dbt_to_global_mat          87451  9.0     0.31     0.32    18.30    31.31
 dbt_distribution_new_expert     926344 12.2     5.31     5.71    29.93    31.25
 is_cell_in_index_to_cell       *******  9.8    28.54    29.93    28.54    29.93
 dbt_tas_communicate_buffer     ******* 17.2    24.60    29.35    24.60    29.35
 dbt_destroy                    ******* 11.2    24.43    27.13    26.23    29.02
 rsmat_to_kp                       7032  7.2     0.05     0.05    27.40    27.91
 rskp_transform                   65400  7.1     0.48    27.17     0.48    27.17
 dbt_tas_reshape_communicate_bu 5424958 16.5     3.04     3.23    23.29    27.16
 mp_cart_get                    ******* 16.0    24.91    26.19    24.91    26.19
 mp_comm_size                   ******* 16.2    21.75    23.66    21.75    23.66
 local_matrix_to_global_matrix    87451 10.0     0.16     0.16     8.95    22.11
 create_and_init_bs_env               1  5.0     0.00     0.00    20.66    20.67
 compute_cfm_mo_coeff_kp_and_ei       1  6.0     0.00     0.00    20.61    20.61
 dbcsr_finalize                 1817741 11.1     3.43     4.34    17.00    20.44
 dbt_create_3c_R1_R2                 62  8.0     2.19     2.29    18.73    19.14
 dbt_create_template            2668046  9.0    18.35    18.85    18.35    18.85
 dbt_create_new                  463172 11.7     3.52     3.93    16.88    17.77
 mp_comm_rank                   ******* 16.2    16.19    17.47    16.19    17.47
 mp_alltoall_i                  ******* 14.8    15.81    16.84    15.81    16.84
 destroy_t_2d                        62  8.0     3.28     3.77    14.70    16.56
 dbt_create_matrix               146072 10.0     0.83     0.88    15.47    15.89
 cp_fm_start_copy_general        175104  7.3     0.79     1.39    15.16    15.34
 soc                                  1  5.0     0.00     0.00    14.19    14.19
 H_KS_spinor_kp                       1  6.0     0.01     0.01    14.18    14.18
 mp_sum_i                       4389937 15.9    12.93    13.33    12.93    13.33
 dbt_tas_reshape_get_coord      5424958 16.5    12.24    13.12    12.24    13.12
 transform_dmat                   29184  8.0     0.22    13.05     0.22    13.05
 cp_cfm_geeig_canon                1172  7.0     0.00     0.01    11.56    11.58
 send_sizes_1                    146072 11.0     0.08     0.09    11.20    11.57
 dbcsr_filter_anytype            655898 11.0     1.48     1.58     8.19    11.56
 mp_allgather_i                  350208  8.3    10.52    11.21    10.52    11.21
 dbm_scale                      ******* 13.0     9.75    10.25     9.75    10.25
 dbcsr_merge_all                 684956 11.8     5.84     7.39     8.49    10.04
 set_blocks                       87451 11.0     0.68     4.75     2.82     9.13
 heuristic_RI_regularization          1  7.0     0.00     0.00     8.84     8.84
 dbt_pgrid_create_expert         926347 13.2     1.22     1.45     8.31     8.79
 mp_sum_l                       ******* 15.1     7.28     7.78     7.28     7.78
 get_Minv_Vtr_Minv_R                  1  8.0     0.02     0.02     7.31     7.34
 dbt_nd_mp_comm                  463167 11.7     0.81     0.94     6.27     6.76
 trafo_V_xc_R_to_kp                   1  7.0     0.00     0.01     6.48     6.51
 comm_data                        87451 11.0     0.15     0.81     0.74     6.21
 mp_max_i                       ******* 11.6     5.35     6.03     5.35     6.03
 setup_cells_3c                       1  7.0     0.20     0.20     6.00     6.01
 build_3c_integral_block          14256  8.0     1.90     2.34     5.00     5.78
 dbt_tas_replicate_communicate_ 3281252 15.9     1.78     1.93     4.76     5.60
 dbt_tas_reshape_alltoall       5424958 16.5     2.59     2.81     4.98     5.46
 build_2c_integrals                  34 10.0     0.08     2.74     0.19     5.43
 send_sizes_2                    146072 11.0     0.08     0.09     4.73     5.03
 mp_waitall_2                    174902 12.0     0.51     4.95     0.51     4.95
 dbcsr_work_create              1067498 10.4     2.86     3.24     4.16     4.72
 mp_isend_dv                    ******* 11.7     0.33     4.45     0.33     4.45
 mp_cart_rank                   ******* 15.9     3.59     4.31     3.59     4.31
 mp_bcast_i                     ******* 18.0     3.66     4.18     3.66     4.18
 dbcsr_iterator_start           3872636 11.0     3.36     3.52     4.00     4.16
 dbcsr_create_new               1487885 10.0     3.08     3.26     3.85     4.05
 copy_fm_to_dbcsr_bc             204603 10.4     0.99     1.02     3.30     3.45
 mp_dims_create                 ******* 14.4     3.12     3.44     3.12     3.44
 dbcsr_work_destroy_all         1067498 11.3     2.08     2.47     2.91     3.40
 comm_size                        87451 11.0     0.06     0.07     3.10     3.37
 abc_contract_xsmm                37244  9.0     2.88     3.26     2.88     3.26
 mp_isend_im2                   ******* 12.9     0.15     3.25     0.15     3.25
 compute_proj_mo_on_kind           1172  6.0     0.02     0.02     3.07     3.12
 mp_bcast_iv                     700497  8.3     2.66     3.08     2.66     3.08
 alloc_block_3c                       1  9.0     0.13     0.14     2.91     2.98
 dbt_copy_matrix_to_tensor       146072 10.0     0.98     1.26     2.69     2.97
 dbt_tas_replicate_alltoall     3281252 15.9     1.52     1.69     2.64     2.92
 dbt_distribution_destroy        926344 12.2     2.17     2.33     2.68     2.88
 dbt_tas_merge_communicate_buff 1627918 16.1     0.97     1.10     2.34     2.74
 dbcsr_data_release             ******* 11.9     2.44     2.71     2.44     2.71
 fill_buffer                      87451 11.0     1.13     2.49     1.24     2.62
 dbcsr_data_new                 ******* 11.3     2.33     2.59     2.33     2.59
 reserve_blocks                  146072 11.0     0.34     0.36     2.42     2.57
 dbcsr_iterator_stop            3872636 11.0     2.00     2.10     2.46     2.55
 dbcsr_destroy                  1380874  9.7     1.12     1.17     2.14     2.27
 dbcsr_reserve_blocks            574939 12.2     1.16     1.90     1.39     2.22
 dbt_buffer_get_index           ******* 16.8     2.02     2.16     2.02     2.16
 dbt_tas_merge_alltoall         1627918 16.1     1.06     1.20     1.88     2.12
 ab_contract                    3763232 11.0     0.04     2.07     0.04     2.07
 dbcsr_set                      1483220 10.6     0.69     0.74     1.53     2.06
 tree_to_linear_d                531913 12.7     1.72     1.88     1.72     1.88
 add_to_DOS_PDOS                   4688  6.5     1.71     1.73     1.71     1.73
 setup_parallelization_Delta_R        1  7.0     0.00     0.00     1.71     1.71
 compute_n_tensor_ops_Delta_R         1  8.0     0.49     0.77     1.71     1.71
 qs_ks_update_qs_env                 57  5.0     0.00     0.00     1.70     1.70
 qs_ks_build_kohn_sham_matrix        60  7.0     0.02     0.04     1.59     1.60
 rebuild_ks_matrix                   57  6.0     0.00     0.00     1.51     1.52
 dbt_reserve_blocks_matrix_to_t  146072 11.0     0.38     0.41     1.38     1.46
 get_coord                        87451 11.0     0.46     0.49     0.88     1.44
 -------------------------------------------------------------------------------

 The number of warnings for this run is : 1
 
 -------------------------------------------------------------------------------
  **** **** ******  **  PROGRAM ENDED AT                 2025-01-10 16:04:11.808
 ***** ** ***  *** **   PROGRAM RAN ON                    n2lcn0103.ab2021.local
 **    ****   ******    PROGRAM RAN BY                                  metdyn02
 ***** **    ** ** **   PROGRAM PROCESS ID                               4016690
  **** **  *******  **  PROGRAM STOPPED IN /scratch/hpc-prf-metdyn/metdyn02_Remi
                                           /05_TMD_new/3_WS2__/SZV/1e-3
