 DBCSR| CPU Multiplication driver                                           BLAS (U)
 DBCSR| Multrec recursion limit                                              512 (U)
 DBCSR| Multiplication stack size                                           1000 (D)
 DBCSR| Maximum elements for images                                    UNLIMITED (U)
 DBCSR| Multiplicative factor virtual images                                   1 (U)
 DBCSR| Use multiplication densification                                       T (D)
 DBCSR| Multiplication size stacks                                             3 (U)
 DBCSR| Use memory pool for CPU allocation                                     F (U)
 DBCSR| Number of 3D layers                                               SINGLE (U)
 DBCSR| Use MPI memory allocation                                              F (U)
 DBCSR| Use RMA algorithm                                                      F (U)
 DBCSR| Use Communication thread                                               T (U)
 DBCSR| Communication thread load                                             45 (D)
 DBCSR| MPI: My process id                                                     0
 DBCSR| MPI: Number of processes                                             128
 DBCSR| OMP: Current number of threads                                        12
 DBCSR| OMP: Max number of threads                                            12
 DBCSR| Split modifier for TAS multiplication algorithm                  1.0E+00 (U)


  **** **** ******  **  PROGRAM STARTED AT               2025-03-15 20:14:20.974
 ***** ** ***  *** **   PROGRAM STARTED ON                          f01r01c03s01
 **    ****   ******    PROGRAM STARTED BY                               di38fab
 ***** **    ** ** **   PROGRAM PROCESS ID                               2627005
  **** **  *******  **  PROGRAM STARTED IN /hppfs/scratch/04/di38fab/04_TMD/4_WS
                                           e2_/DZVPnonaug/1e-3

 CP2K| version string:                 CP2K version 2025.1 (Development Version)
 CP2K| source code revision number:                                  git:d2e611a
 CP2K| cp2kflags: omp libint fftw3 libxc parallel scalapack max_contr=4         
 CP2K| is freely available from                            https://www.cp2k.org/
 CP2K| Program compiled at                       Thu 06 Mar 2025 05:09:20 PM CET
 CP2K| Program compiled on                                               login02
 CP2K| Program compiled for                                        Supermuc-foss
 CP2K| Data directory path                  /hppfs/work/pn36zo/di38fab/cp2k/data
 CP2K| Input file name                                                    GW.inp

 GLOBAL| Force Environment number                                              1
 GLOBAL| Basis set file name                                        BASIS_MOLOPT
 GLOBAL| Potential file name            /hppfs/work/pn36zo/di38fab/cp2k/data/GTH
 GLOBAL| MM Potential file name                                     MM_POTENTIAL
 GLOBAL| Coordinate file name                                      __STD_INPUT__
 GLOBAL| Method name                                                        CP2K
 GLOBAL| Project name                                                       MoS2
 GLOBAL| Run type                                                         ENERGY
 GLOBAL| FFT library                                                       FFTW3
 GLOBAL| Diagonalization library                                       ScaLAPACK
 GLOBAL| DGEMM library                                                      BLAS
 GLOBAL| Orthonormality check for eigenvectors                          DISABLED
 GLOBAL| Matrix multiplication library                                 ScaLAPACK
 GLOBAL| All-to-all communication in single precision                          F
 GLOBAL| FFTs using library dependent lengths                                  F
 GLOBAL| Grid backend                                                       AUTO
 GLOBAL| Global print level                                               MEDIUM
 GLOBAL| MPI I/O enabled                                                       T
 GLOBAL| Total number of message passing processes                           128
 GLOBAL| Number of threads for this process                                   12
 GLOBAL| This output is from process                                           0
 GLOBAL| OpenMP stack size per thread (OMP_STACKSIZE)                    default
 GLOBAL| CPU model name             Intel(R) Xeon(R) Platinum 8174 CPU @ 3.10GHz

 MEMORY| system memory details [Kb]
 MEMORY|                        rank 0           min           max       average
 MEMORY| MemTotal            792068892     792068880     792068924     792068890
 MEMORY| MemFree             778485740     778485740     779898032     778856635
 MEMORY| Buffers                     0             0             0             0
 MEMORY| Cached                2325112       2291788       2341128       2309424
 MEMORY| Slab                  1204916        938468       1219724       1178157
 MEMORY| SReclaimable           271484        208536        271484        260235
 MEMORY| MemLikelyFree       781082336     781082336     782412816     781426295


 *** Fundamental physical constants (SI units) ***

 *** Literature: B. J. Mohr and B. N. Taylor,
 ***             CODATA recommended values of the fundamental physical
 ***             constants: 2006, Web Version 5.1
 ***             http://physics.nist.gov/constants

 Speed of light in vacuum [m/s]                             2.99792458000000E+08
 Magnetic constant or permeability of vacuum [N/A**2]       1.25663706143592E-06
 Electric constant or permittivity of vacuum [F/m]          8.85418781762039E-12
 Planck constant (h) [J*s]                                  6.62606896000000E-34
 Planck constant (h-bar) [J*s]                              1.05457162825177E-34
 Elementary charge [C]                                      1.60217648700000E-19
 Electron mass [kg]                                         9.10938215000000E-31
 Electron g factor [ ]                                     -2.00231930436220E+00
 Proton mass [kg]                                           1.67262163700000E-27
 Fine-structure constant                                    7.29735253760000E-03
 Rydberg constant [1/m]                                     1.09737315685270E+07
 Avogadro constant [1/mol]                                  6.02214179000000E+23
 Boltzmann constant [J/K]                                   1.38065040000000E-23
 Atomic mass unit [kg]                                      1.66053878200000E-27
 Bohr radius [m]                                            5.29177208590000E-11

 *** Conversion factors ***

 [u] -> [a.u.]                                              1.82288848426455E+03
 [Angstrom] -> [Bohr] = [a.u.]                              1.88972613288564E+00
 [a.u.] = [Bohr] -> [Angstrom]                              5.29177208590000E-01
 [a.u.] -> [s]                                              2.41888432650478E-17
 [a.u.] -> [fs]                                             2.41888432650478E-02
 [a.u.] -> [J]                                              4.35974393937059E-18
 [a.u.] -> [N]                                              8.23872205491840E-08
 [a.u.] -> [K]                                              3.15774647902944E+05
 [a.u.] -> [kJ/mol]                                         2.62549961709828E+03
 [a.u.] -> [kcal/mol]                                       6.27509468713739E+02
 [a.u.] -> [Pa]                                             2.94210107994716E+13
 [a.u.] -> [bar]                                            2.94210107994716E+08
 [a.u.] -> [atm]                                            2.90362800883016E+08
 [a.u.] -> [eV]                                             2.72113838565563E+01
 [a.u.] -> [Hz]                                             6.57968392072181E+15
 [a.u.] -> [1/cm] (wave numbers)                            2.19474631370540E+05
 [a.u./Bohr**2] -> [1/cm]                                   5.14048714338585E+03
 

 CELL_TOP| Volume [angstrom^3]:                                       143.098933
 CELL_TOP| Vector a [angstrom     3.319     0.000     0.000   |a| =     3.319000
 CELL_TOP| Vector b [angstrom    -1.659     2.874     0.000   |b| =     3.319000
 CELL_TOP| Vector c [angstrom     0.000     0.000    15.000   |c| =    15.000000
 CELL_TOP| Angle (b,c), alpha [degree]:                                90.000000
 CELL_TOP| Angle (a,c), beta  [degree]:                                90.000000
 CELL_TOP| Angle (a,b), gamma [degree]:                               120.000000
 CELL_TOP| Numerically orthorhombic:                                          NO
 CELL_TOP| Periodicity                                                        XY

 GENERATE|  Preliminary Number of Bonds generated:                             0
 GENERATE|  Achieved consistency in connectivity generation.

 CELL| Volume [angstrom^3]:                                           143.098933
 CELL| Vector a [angstrom]:       3.319     0.000     0.000   |a| =     3.319000
 CELL| Vector b [angstrom]:      -1.659     2.874     0.000   |b| =     3.319000
 CELL| Vector c [angstrom]:       0.000     0.000    15.000   |c| =    15.000000
 CELL| Angle (b,c), alpha [degree]:                                    90.000000
 CELL| Angle (a,c), beta  [degree]:                                    90.000000
 CELL| Angle (a,b), gamma [degree]:                                   120.000000
 CELL| Numerically orthorhombic:                                              NO
 CELL| Periodicity                                                            XY

 CELL_REF| Volume [angstrom^3]:                                       143.098933
 CELL_REF| Vector a [angstrom     3.319     0.000     0.000   |a| =     3.319000
 CELL_REF| Vector b [angstrom    -1.659     2.874     0.000   |b| =     3.319000
 CELL_REF| Vector c [angstrom     0.000     0.000    15.000   |c| =    15.000000
 CELL_REF| Angle (b,c), alpha [degree]:                                90.000000
 CELL_REF| Angle (a,c), beta  [degree]:                                90.000000
 CELL_REF| Angle (a,b), gamma [degree]:                               120.000000
 CELL_REF| Numerically orthorhombic:                                          NO
 CELL_REF| Periodicity                                                        XY

 *** WARNING in cryssym.F:180 :: Symmetry library SPGLIB not available ***


 *******************************************************************************
                                    Kpoints
 *******************************************************************************
 BRILLOUIN| K-point scheme                                        Monkhorst-Pack
 BRILLOUIN| K-Point grid                                            32   32    1
 BRILLOUIN| Accuracy in Symmetry determination                      0.100000E-05
 BRILLOUIN| K-Point point group symmetrization                               OFF
 BRILLOUIN| Wavefunction type                                            COMPLEX
 BRILLOUIN| List of Kpoints [2 Pi/Bohr]                                      512
 BRILLOUIN| Number           Weight            X              Y              Z
 BRILLOUIN|     1           0.00195       -0.48438       -0.48438        0.00000
 BRILLOUIN|     2           0.00195       -0.48438       -0.45312        0.00000
 BRILLOUIN|     3           0.00195       -0.48438       -0.42188        0.00000
 BRILLOUIN|     4           0.00195       -0.48438       -0.39062        0.00000
 BRILLOUIN|     5           0.00195       -0.48438       -0.35938        0.00000
 BRILLOUIN|     6           0.00195       -0.48438       -0.32812        0.00000
 BRILLOUIN|     7           0.00195       -0.48438       -0.29688        0.00000
 BRILLOUIN|     8           0.00195       -0.48438       -0.26562        0.00000
 BRILLOUIN|     9           0.00195       -0.48438       -0.23438        0.00000
 BRILLOUIN|    10           0.00195       -0.48438       -0.20312        0.00000
 BRILLOUIN|    11           0.00195       -0.48438       -0.17188        0.00000
 BRILLOUIN|    12           0.00195       -0.48438       -0.14062        0.00000
 BRILLOUIN|    13           0.00195       -0.48438       -0.10938        0.00000
 BRILLOUIN|    14           0.00195       -0.48438       -0.07812        0.00000
 BRILLOUIN|    15           0.00195       -0.48438       -0.04688        0.00000
 BRILLOUIN|    16           0.00195       -0.48438       -0.01562        0.00000
 BRILLOUIN|    17           0.00195       -0.48438        0.01562        0.00000
 BRILLOUIN|    18           0.00195       -0.48438        0.04688        0.00000
 BRILLOUIN|    19           0.00195       -0.48438        0.07812        0.00000
 BRILLOUIN|    20           0.00195       -0.48438        0.10938        0.00000
 BRILLOUIN|    21           0.00195       -0.48438        0.14062        0.00000
 BRILLOUIN|    22           0.00195       -0.48438        0.17188        0.00000
 BRILLOUIN|    23           0.00195       -0.48438        0.20312        0.00000
 BRILLOUIN|    24           0.00195       -0.48438        0.23438        0.00000
 BRILLOUIN|    25           0.00195       -0.48438        0.26562        0.00000
 BRILLOUIN|    26           0.00195       -0.48438        0.29688        0.00000
 BRILLOUIN|    27           0.00195       -0.48438        0.32812        0.00000
 BRILLOUIN|    28           0.00195       -0.48438        0.35938        0.00000
 BRILLOUIN|    29           0.00195       -0.48438        0.39062        0.00000
 BRILLOUIN|    30           0.00195       -0.48438        0.42188        0.00000
 BRILLOUIN|    31           0.00195       -0.48438        0.45312        0.00000
 BRILLOUIN|    32           0.00195       -0.48438        0.48438        0.00000
 BRILLOUIN|    33           0.00195       -0.45312       -0.48438        0.00000
 BRILLOUIN|    34           0.00195       -0.45312       -0.45312        0.00000
 BRILLOUIN|    35           0.00195       -0.45312       -0.42188        0.00000
 BRILLOUIN|    36           0.00195       -0.45312       -0.39062        0.00000
 BRILLOUIN|    37           0.00195       -0.45312       -0.35938        0.00000
 BRILLOUIN|    38           0.00195       -0.45312       -0.32812        0.00000
 BRILLOUIN|    39           0.00195       -0.45312       -0.29688        0.00000
 BRILLOUIN|    40           0.00195       -0.45312       -0.26562        0.00000
 BRILLOUIN|    41           0.00195       -0.45312       -0.23438        0.00000
 BRILLOUIN|    42           0.00195       -0.45312       -0.20312        0.00000
 BRILLOUIN|    43           0.00195       -0.45312       -0.17188        0.00000
 BRILLOUIN|    44           0.00195       -0.45312       -0.14062        0.00000
 BRILLOUIN|    45           0.00195       -0.45312       -0.10938        0.00000
 BRILLOUIN|    46           0.00195       -0.45312       -0.07812        0.00000
 BRILLOUIN|    47           0.00195       -0.45312       -0.04688        0.00000
 BRILLOUIN|    48           0.00195       -0.45312       -0.01562        0.00000
 BRILLOUIN|    49           0.00195       -0.45312        0.01562        0.00000
 BRILLOUIN|    50           0.00195       -0.45312        0.04688        0.00000
 BRILLOUIN|    51           0.00195       -0.45312        0.07812        0.00000
 BRILLOUIN|    52           0.00195       -0.45312        0.10938        0.00000
 BRILLOUIN|    53           0.00195       -0.45312        0.14062        0.00000
 BRILLOUIN|    54           0.00195       -0.45312        0.17188        0.00000
 BRILLOUIN|    55           0.00195       -0.45312        0.20312        0.00000
 BRILLOUIN|    56           0.00195       -0.45312        0.23438        0.00000
 BRILLOUIN|    57           0.00195       -0.45312        0.26562        0.00000
 BRILLOUIN|    58           0.00195       -0.45312        0.29688        0.00000
 BRILLOUIN|    59           0.00195       -0.45312        0.32812        0.00000
 BRILLOUIN|    60           0.00195       -0.45312        0.35938        0.00000
 BRILLOUIN|    61           0.00195       -0.45312        0.39062        0.00000
 BRILLOUIN|    62           0.00195       -0.45312        0.42188        0.00000
 BRILLOUIN|    63           0.00195       -0.45312        0.45312        0.00000
 BRILLOUIN|    64           0.00195       -0.45312        0.48438        0.00000
 BRILLOUIN|    65           0.00195       -0.42188       -0.48438        0.00000
 BRILLOUIN|    66           0.00195       -0.42188       -0.45312        0.00000
 BRILLOUIN|    67           0.00195       -0.42188       -0.42188        0.00000
 BRILLOUIN|    68           0.00195       -0.42188       -0.39062        0.00000
 BRILLOUIN|    69           0.00195       -0.42188       -0.35938        0.00000
 BRILLOUIN|    70           0.00195       -0.42188       -0.32812        0.00000
 BRILLOUIN|    71           0.00195       -0.42188       -0.29688        0.00000
 BRILLOUIN|    72           0.00195       -0.42188       -0.26562        0.00000
 BRILLOUIN|    73           0.00195       -0.42188       -0.23438        0.00000
 BRILLOUIN|    74           0.00195       -0.42188       -0.20312        0.00000
 BRILLOUIN|    75           0.00195       -0.42188       -0.17188        0.00000
 BRILLOUIN|    76           0.00195       -0.42188       -0.14062        0.00000
 BRILLOUIN|    77           0.00195       -0.42188       -0.10938        0.00000
 BRILLOUIN|    78           0.00195       -0.42188       -0.07812        0.00000
 BRILLOUIN|    79           0.00195       -0.42188       -0.04688        0.00000
 BRILLOUIN|    80           0.00195       -0.42188       -0.01562        0.00000
 BRILLOUIN|    81           0.00195       -0.42188        0.01562        0.00000
 BRILLOUIN|    82           0.00195       -0.42188        0.04688        0.00000
 BRILLOUIN|    83           0.00195       -0.42188        0.07812        0.00000
 BRILLOUIN|    84           0.00195       -0.42188        0.10938        0.00000
 BRILLOUIN|    85           0.00195       -0.42188        0.14062        0.00000
 BRILLOUIN|    86           0.00195       -0.42188        0.17188        0.00000
 BRILLOUIN|    87           0.00195       -0.42188        0.20312        0.00000
 BRILLOUIN|    88           0.00195       -0.42188        0.23438        0.00000
 BRILLOUIN|    89           0.00195       -0.42188        0.26562        0.00000
 BRILLOUIN|    90           0.00195       -0.42188        0.29688        0.00000
 BRILLOUIN|    91           0.00195       -0.42188        0.32812        0.00000
 BRILLOUIN|    92           0.00195       -0.42188        0.35938        0.00000
 BRILLOUIN|    93           0.00195       -0.42188        0.39062        0.00000
 BRILLOUIN|    94           0.00195       -0.42188        0.42188        0.00000
 BRILLOUIN|    95           0.00195       -0.42188        0.45312        0.00000
 BRILLOUIN|    96           0.00195       -0.42188        0.48438        0.00000
 BRILLOUIN|    97           0.00195       -0.39062       -0.48438        0.00000
 BRILLOUIN|    98           0.00195       -0.39062       -0.45312        0.00000
 BRILLOUIN|    99           0.00195       -0.39062       -0.42188        0.00000
 BRILLOUIN|   100           0.00195       -0.39062       -0.39062        0.00000
 BRILLOUIN|   101           0.00195       -0.39062       -0.35938        0.00000
 BRILLOUIN|   102           0.00195       -0.39062       -0.32812        0.00000
 BRILLOUIN|   103           0.00195       -0.39062       -0.29688        0.00000
 BRILLOUIN|   104           0.00195       -0.39062       -0.26562        0.00000
 BRILLOUIN|   105           0.00195       -0.39062       -0.23438        0.00000
 BRILLOUIN|   106           0.00195       -0.39062       -0.20312        0.00000
 BRILLOUIN|   107           0.00195       -0.39062       -0.17188        0.00000
 BRILLOUIN|   108           0.00195       -0.39062       -0.14062        0.00000
 BRILLOUIN|   109           0.00195       -0.39062       -0.10938        0.00000
 BRILLOUIN|   110           0.00195       -0.39062       -0.07812        0.00000
 BRILLOUIN|   111           0.00195       -0.39062       -0.04688        0.00000
 BRILLOUIN|   112           0.00195       -0.39062       -0.01562        0.00000
 BRILLOUIN|   113           0.00195       -0.39062        0.01562        0.00000
 BRILLOUIN|   114           0.00195       -0.39062        0.04688        0.00000
 BRILLOUIN|   115           0.00195       -0.39062        0.07812        0.00000
 BRILLOUIN|   116           0.00195       -0.39062        0.10938        0.00000
 BRILLOUIN|   117           0.00195       -0.39062        0.14062        0.00000
 BRILLOUIN|   118           0.00195       -0.39062        0.17188        0.00000
 BRILLOUIN|   119           0.00195       -0.39062        0.20312        0.00000
 BRILLOUIN|   120           0.00195       -0.39062        0.23438        0.00000
 BRILLOUIN|   121           0.00195       -0.39062        0.26562        0.00000
 BRILLOUIN|   122           0.00195       -0.39062        0.29688        0.00000
 BRILLOUIN|   123           0.00195       -0.39062        0.32812        0.00000
 BRILLOUIN|   124           0.00195       -0.39062        0.35938        0.00000
 BRILLOUIN|   125           0.00195       -0.39062        0.39062        0.00000
 BRILLOUIN|   126           0.00195       -0.39062        0.42188        0.00000
 BRILLOUIN|   127           0.00195       -0.39062        0.45312        0.00000
 BRILLOUIN|   128           0.00195       -0.39062        0.48438        0.00000
 BRILLOUIN|   129           0.00195       -0.35938       -0.48438        0.00000
 BRILLOUIN|   130           0.00195       -0.35938       -0.45312        0.00000
 BRILLOUIN|   131           0.00195       -0.35938       -0.42188        0.00000
 BRILLOUIN|   132           0.00195       -0.35938       -0.39062        0.00000
 BRILLOUIN|   133           0.00195       -0.35938       -0.35938        0.00000
 BRILLOUIN|   134           0.00195       -0.35938       -0.32812        0.00000
 BRILLOUIN|   135           0.00195       -0.35938       -0.29688        0.00000
 BRILLOUIN|   136           0.00195       -0.35938       -0.26562        0.00000
 BRILLOUIN|   137           0.00195       -0.35938       -0.23438        0.00000
 BRILLOUIN|   138           0.00195       -0.35938       -0.20312        0.00000
 BRILLOUIN|   139           0.00195       -0.35938       -0.17188        0.00000
 BRILLOUIN|   140           0.00195       -0.35938       -0.14062        0.00000
 BRILLOUIN|   141           0.00195       -0.35938       -0.10938        0.00000
 BRILLOUIN|   142           0.00195       -0.35938       -0.07812        0.00000
 BRILLOUIN|   143           0.00195       -0.35938       -0.04688        0.00000
 BRILLOUIN|   144           0.00195       -0.35938       -0.01562        0.00000
 BRILLOUIN|   145           0.00195       -0.35938        0.01562        0.00000
 BRILLOUIN|   146           0.00195       -0.35938        0.04688        0.00000
 BRILLOUIN|   147           0.00195       -0.35938        0.07812        0.00000
 BRILLOUIN|   148           0.00195       -0.35938        0.10938        0.00000
 BRILLOUIN|   149           0.00195       -0.35938        0.14062        0.00000
 BRILLOUIN|   150           0.00195       -0.35938        0.17188        0.00000
 BRILLOUIN|   151           0.00195       -0.35938        0.20312        0.00000
 BRILLOUIN|   152           0.00195       -0.35938        0.23438        0.00000
 BRILLOUIN|   153           0.00195       -0.35938        0.26562        0.00000
 BRILLOUIN|   154           0.00195       -0.35938        0.29688        0.00000
 BRILLOUIN|   155           0.00195       -0.35938        0.32812        0.00000
 BRILLOUIN|   156           0.00195       -0.35938        0.35938        0.00000
 BRILLOUIN|   157           0.00195       -0.35938        0.39062        0.00000
 BRILLOUIN|   158           0.00195       -0.35938        0.42188        0.00000
 BRILLOUIN|   159           0.00195       -0.35938        0.45312        0.00000
 BRILLOUIN|   160           0.00195       -0.35938        0.48438        0.00000
 BRILLOUIN|   161           0.00195       -0.32812       -0.48438        0.00000
 BRILLOUIN|   162           0.00195       -0.32812       -0.45312        0.00000
 BRILLOUIN|   163           0.00195       -0.32812       -0.42188        0.00000
 BRILLOUIN|   164           0.00195       -0.32812       -0.39062        0.00000
 BRILLOUIN|   165           0.00195       -0.32812       -0.35938        0.00000
 BRILLOUIN|   166           0.00195       -0.32812       -0.32812        0.00000
 BRILLOUIN|   167           0.00195       -0.32812       -0.29688        0.00000
 BRILLOUIN|   168           0.00195       -0.32812       -0.26562        0.00000
 BRILLOUIN|   169           0.00195       -0.32812       -0.23438        0.00000
 BRILLOUIN|   170           0.00195       -0.32812       -0.20312        0.00000
 BRILLOUIN|   171           0.00195       -0.32812       -0.17188        0.00000
 BRILLOUIN|   172           0.00195       -0.32812       -0.14062        0.00000
 BRILLOUIN|   173           0.00195       -0.32812       -0.10938        0.00000
 BRILLOUIN|   174           0.00195       -0.32812       -0.07812        0.00000
 BRILLOUIN|   175           0.00195       -0.32812       -0.04688        0.00000
 BRILLOUIN|   176           0.00195       -0.32812       -0.01562        0.00000
 BRILLOUIN|   177           0.00195       -0.32812        0.01562        0.00000
 BRILLOUIN|   178           0.00195       -0.32812        0.04688        0.00000
 BRILLOUIN|   179           0.00195       -0.32812        0.07812        0.00000
 BRILLOUIN|   180           0.00195       -0.32812        0.10938        0.00000
 BRILLOUIN|   181           0.00195       -0.32812        0.14062        0.00000
 BRILLOUIN|   182           0.00195       -0.32812        0.17188        0.00000
 BRILLOUIN|   183           0.00195       -0.32812        0.20312        0.00000
 BRILLOUIN|   184           0.00195       -0.32812        0.23438        0.00000
 BRILLOUIN|   185           0.00195       -0.32812        0.26562        0.00000
 BRILLOUIN|   186           0.00195       -0.32812        0.29688        0.00000
 BRILLOUIN|   187           0.00195       -0.32812        0.32812        0.00000
 BRILLOUIN|   188           0.00195       -0.32812        0.35938        0.00000
 BRILLOUIN|   189           0.00195       -0.32812        0.39062        0.00000
 BRILLOUIN|   190           0.00195       -0.32812        0.42188        0.00000
 BRILLOUIN|   191           0.00195       -0.32812        0.45312        0.00000
 BRILLOUIN|   192           0.00195       -0.32812        0.48438        0.00000
 BRILLOUIN|   193           0.00195       -0.29688       -0.48438        0.00000
 BRILLOUIN|   194           0.00195       -0.29688       -0.45312        0.00000
 BRILLOUIN|   195           0.00195       -0.29688       -0.42188        0.00000
 BRILLOUIN|   196           0.00195       -0.29688       -0.39062        0.00000
 BRILLOUIN|   197           0.00195       -0.29688       -0.35938        0.00000
 BRILLOUIN|   198           0.00195       -0.29688       -0.32812        0.00000
 BRILLOUIN|   199           0.00195       -0.29688       -0.29688        0.00000
 BRILLOUIN|   200           0.00195       -0.29688       -0.26562        0.00000
 BRILLOUIN|   201           0.00195       -0.29688       -0.23438        0.00000
 BRILLOUIN|   202           0.00195       -0.29688       -0.20312        0.00000
 BRILLOUIN|   203           0.00195       -0.29688       -0.17188        0.00000
 BRILLOUIN|   204           0.00195       -0.29688       -0.14062        0.00000
 BRILLOUIN|   205           0.00195       -0.29688       -0.10938        0.00000
 BRILLOUIN|   206           0.00195       -0.29688       -0.07812        0.00000
 BRILLOUIN|   207           0.00195       -0.29688       -0.04688        0.00000
 BRILLOUIN|   208           0.00195       -0.29688       -0.01562        0.00000
 BRILLOUIN|   209           0.00195       -0.29688        0.01562        0.00000
 BRILLOUIN|   210           0.00195       -0.29688        0.04688        0.00000
 BRILLOUIN|   211           0.00195       -0.29688        0.07812        0.00000
 BRILLOUIN|   212           0.00195       -0.29688        0.10938        0.00000
 BRILLOUIN|   213           0.00195       -0.29688        0.14062        0.00000
 BRILLOUIN|   214           0.00195       -0.29688        0.17188        0.00000
 BRILLOUIN|   215           0.00195       -0.29688        0.20312        0.00000
 BRILLOUIN|   216           0.00195       -0.29688        0.23438        0.00000
 BRILLOUIN|   217           0.00195       -0.29688        0.26562        0.00000
 BRILLOUIN|   218           0.00195       -0.29688        0.29688        0.00000
 BRILLOUIN|   219           0.00195       -0.29688        0.32812        0.00000
 BRILLOUIN|   220           0.00195       -0.29688        0.35938        0.00000
 BRILLOUIN|   221           0.00195       -0.29688        0.39062        0.00000
 BRILLOUIN|   222           0.00195       -0.29688        0.42188        0.00000
 BRILLOUIN|   223           0.00195       -0.29688        0.45312        0.00000
 BRILLOUIN|   224           0.00195       -0.29688        0.48438        0.00000
 BRILLOUIN|   225           0.00195       -0.26562       -0.48438        0.00000
 BRILLOUIN|   226           0.00195       -0.26562       -0.45312        0.00000
 BRILLOUIN|   227           0.00195       -0.26562       -0.42188        0.00000
 BRILLOUIN|   228           0.00195       -0.26562       -0.39062        0.00000
 BRILLOUIN|   229           0.00195       -0.26562       -0.35938        0.00000
 BRILLOUIN|   230           0.00195       -0.26562       -0.32812        0.00000
 BRILLOUIN|   231           0.00195       -0.26562       -0.29688        0.00000
 BRILLOUIN|   232           0.00195       -0.26562       -0.26562        0.00000
 BRILLOUIN|   233           0.00195       -0.26562       -0.23438        0.00000
 BRILLOUIN|   234           0.00195       -0.26562       -0.20312        0.00000
 BRILLOUIN|   235           0.00195       -0.26562       -0.17188        0.00000
 BRILLOUIN|   236           0.00195       -0.26562       -0.14062        0.00000
 BRILLOUIN|   237           0.00195       -0.26562       -0.10938        0.00000
 BRILLOUIN|   238           0.00195       -0.26562       -0.07812        0.00000
 BRILLOUIN|   239           0.00195       -0.26562       -0.04688        0.00000
 BRILLOUIN|   240           0.00195       -0.26562       -0.01562        0.00000
 BRILLOUIN|   241           0.00195       -0.26562        0.01562        0.00000
 BRILLOUIN|   242           0.00195       -0.26562        0.04688        0.00000
 BRILLOUIN|   243           0.00195       -0.26562        0.07812        0.00000
 BRILLOUIN|   244           0.00195       -0.26562        0.10938        0.00000
 BRILLOUIN|   245           0.00195       -0.26562        0.14062        0.00000
 BRILLOUIN|   246           0.00195       -0.26562        0.17188        0.00000
 BRILLOUIN|   247           0.00195       -0.26562        0.20312        0.00000
 BRILLOUIN|   248           0.00195       -0.26562        0.23438        0.00000
 BRILLOUIN|   249           0.00195       -0.26562        0.26562        0.00000
 BRILLOUIN|   250           0.00195       -0.26562        0.29688        0.00000
 BRILLOUIN|   251           0.00195       -0.26562        0.32812        0.00000
 BRILLOUIN|   252           0.00195       -0.26562        0.35938        0.00000
 BRILLOUIN|   253           0.00195       -0.26562        0.39062        0.00000
 BRILLOUIN|   254           0.00195       -0.26562        0.42188        0.00000
 BRILLOUIN|   255           0.00195       -0.26562        0.45312        0.00000
 BRILLOUIN|   256           0.00195       -0.26562        0.48438        0.00000
 BRILLOUIN|   257           0.00195       -0.23438       -0.48438        0.00000
 BRILLOUIN|   258           0.00195       -0.23438       -0.45312        0.00000
 BRILLOUIN|   259           0.00195       -0.23438       -0.42188        0.00000
 BRILLOUIN|   260           0.00195       -0.23438       -0.39062        0.00000
 BRILLOUIN|   261           0.00195       -0.23438       -0.35938        0.00000
 BRILLOUIN|   262           0.00195       -0.23438       -0.32812        0.00000
 BRILLOUIN|   263           0.00195       -0.23438       -0.29688        0.00000
 BRILLOUIN|   264           0.00195       -0.23438       -0.26562        0.00000
 BRILLOUIN|   265           0.00195       -0.23438       -0.23438        0.00000
 BRILLOUIN|   266           0.00195       -0.23438       -0.20312        0.00000
 BRILLOUIN|   267           0.00195       -0.23438       -0.17188        0.00000
 BRILLOUIN|   268           0.00195       -0.23438       -0.14062        0.00000
 BRILLOUIN|   269           0.00195       -0.23438       -0.10938        0.00000
 BRILLOUIN|   270           0.00195       -0.23438       -0.07812        0.00000
 BRILLOUIN|   271           0.00195       -0.23438       -0.04688        0.00000
 BRILLOUIN|   272           0.00195       -0.23438       -0.01562        0.00000
 BRILLOUIN|   273           0.00195       -0.23438        0.01562        0.00000
 BRILLOUIN|   274           0.00195       -0.23438        0.04688        0.00000
 BRILLOUIN|   275           0.00195       -0.23438        0.07812        0.00000
 BRILLOUIN|   276           0.00195       -0.23438        0.10938        0.00000
 BRILLOUIN|   277           0.00195       -0.23438        0.14062        0.00000
 BRILLOUIN|   278           0.00195       -0.23438        0.17188        0.00000
 BRILLOUIN|   279           0.00195       -0.23438        0.20312        0.00000
 BRILLOUIN|   280           0.00195       -0.23438        0.23438        0.00000
 BRILLOUIN|   281           0.00195       -0.23438        0.26562        0.00000
 BRILLOUIN|   282           0.00195       -0.23438        0.29688        0.00000
 BRILLOUIN|   283           0.00195       -0.23438        0.32812        0.00000
 BRILLOUIN|   284           0.00195       -0.23438        0.35938        0.00000
 BRILLOUIN|   285           0.00195       -0.23438        0.39062        0.00000
 BRILLOUIN|   286           0.00195       -0.23438        0.42188        0.00000
 BRILLOUIN|   287           0.00195       -0.23438        0.45312        0.00000
 BRILLOUIN|   288           0.00195       -0.23438        0.48438        0.00000
 BRILLOUIN|   289           0.00195       -0.20312       -0.48438        0.00000
 BRILLOUIN|   290           0.00195       -0.20312       -0.45312        0.00000
 BRILLOUIN|   291           0.00195       -0.20312       -0.42188        0.00000
 BRILLOUIN|   292           0.00195       -0.20312       -0.39062        0.00000
 BRILLOUIN|   293           0.00195       -0.20312       -0.35938        0.00000
 BRILLOUIN|   294           0.00195       -0.20312       -0.32812        0.00000
 BRILLOUIN|   295           0.00195       -0.20312       -0.29688        0.00000
 BRILLOUIN|   296           0.00195       -0.20312       -0.26562        0.00000
 BRILLOUIN|   297           0.00195       -0.20312       -0.23438        0.00000
 BRILLOUIN|   298           0.00195       -0.20312       -0.20312        0.00000
 BRILLOUIN|   299           0.00195       -0.20312       -0.17188        0.00000
 BRILLOUIN|   300           0.00195       -0.20312       -0.14062        0.00000
 BRILLOUIN|   301           0.00195       -0.20312       -0.10938        0.00000
 BRILLOUIN|   302           0.00195       -0.20312       -0.07812        0.00000
 BRILLOUIN|   303           0.00195       -0.20312       -0.04688        0.00000
 BRILLOUIN|   304           0.00195       -0.20312       -0.01562        0.00000
 BRILLOUIN|   305           0.00195       -0.20312        0.01562        0.00000
 BRILLOUIN|   306           0.00195       -0.20312        0.04688        0.00000
 BRILLOUIN|   307           0.00195       -0.20312        0.07812        0.00000
 BRILLOUIN|   308           0.00195       -0.20312        0.10938        0.00000
 BRILLOUIN|   309           0.00195       -0.20312        0.14062        0.00000
 BRILLOUIN|   310           0.00195       -0.20312        0.17188        0.00000
 BRILLOUIN|   311           0.00195       -0.20312        0.20312        0.00000
 BRILLOUIN|   312           0.00195       -0.20312        0.23438        0.00000
 BRILLOUIN|   313           0.00195       -0.20312        0.26562        0.00000
 BRILLOUIN|   314           0.00195       -0.20312        0.29688        0.00000
 BRILLOUIN|   315           0.00195       -0.20312        0.32812        0.00000
 BRILLOUIN|   316           0.00195       -0.20312        0.35938        0.00000
 BRILLOUIN|   317           0.00195       -0.20312        0.39062        0.00000
 BRILLOUIN|   318           0.00195       -0.20312        0.42188        0.00000
 BRILLOUIN|   319           0.00195       -0.20312        0.45312        0.00000
 BRILLOUIN|   320           0.00195       -0.20312        0.48438        0.00000
 BRILLOUIN|   321           0.00195       -0.17188       -0.48438        0.00000
 BRILLOUIN|   322           0.00195       -0.17188       -0.45312        0.00000
 BRILLOUIN|   323           0.00195       -0.17188       -0.42188        0.00000
 BRILLOUIN|   324           0.00195       -0.17188       -0.39062        0.00000
 BRILLOUIN|   325           0.00195       -0.17188       -0.35938        0.00000
 BRILLOUIN|   326           0.00195       -0.17188       -0.32812        0.00000
 BRILLOUIN|   327           0.00195       -0.17188       -0.29688        0.00000
 BRILLOUIN|   328           0.00195       -0.17188       -0.26562        0.00000
 BRILLOUIN|   329           0.00195       -0.17188       -0.23438        0.00000
 BRILLOUIN|   330           0.00195       -0.17188       -0.20312        0.00000
 BRILLOUIN|   331           0.00195       -0.17188       -0.17188        0.00000
 BRILLOUIN|   332           0.00195       -0.17188       -0.14062        0.00000
 BRILLOUIN|   333           0.00195       -0.17188       -0.10938        0.00000
 BRILLOUIN|   334           0.00195       -0.17188       -0.07812        0.00000
 BRILLOUIN|   335           0.00195       -0.17188       -0.04688        0.00000
 BRILLOUIN|   336           0.00195       -0.17188       -0.01562        0.00000
 BRILLOUIN|   337           0.00195       -0.17188        0.01562        0.00000
 BRILLOUIN|   338           0.00195       -0.17188        0.04688        0.00000
 BRILLOUIN|   339           0.00195       -0.17188        0.07812        0.00000
 BRILLOUIN|   340           0.00195       -0.17188        0.10938        0.00000
 BRILLOUIN|   341           0.00195       -0.17188        0.14062        0.00000
 BRILLOUIN|   342           0.00195       -0.17188        0.17188        0.00000
 BRILLOUIN|   343           0.00195       -0.17188        0.20312        0.00000
 BRILLOUIN|   344           0.00195       -0.17188        0.23438        0.00000
 BRILLOUIN|   345           0.00195       -0.17188        0.26562        0.00000
 BRILLOUIN|   346           0.00195       -0.17188        0.29688        0.00000
 BRILLOUIN|   347           0.00195       -0.17188        0.32812        0.00000
 BRILLOUIN|   348           0.00195       -0.17188        0.35938        0.00000
 BRILLOUIN|   349           0.00195       -0.17188        0.39062        0.00000
 BRILLOUIN|   350           0.00195       -0.17188        0.42188        0.00000
 BRILLOUIN|   351           0.00195       -0.17188        0.45312        0.00000
 BRILLOUIN|   352           0.00195       -0.17188        0.48438        0.00000
 BRILLOUIN|   353           0.00195       -0.14062       -0.48438        0.00000
 BRILLOUIN|   354           0.00195       -0.14062       -0.45312        0.00000
 BRILLOUIN|   355           0.00195       -0.14062       -0.42188        0.00000
 BRILLOUIN|   356           0.00195       -0.14062       -0.39062        0.00000
 BRILLOUIN|   357           0.00195       -0.14062       -0.35938        0.00000
 BRILLOUIN|   358           0.00195       -0.14062       -0.32812        0.00000
 BRILLOUIN|   359           0.00195       -0.14062       -0.29688        0.00000
 BRILLOUIN|   360           0.00195       -0.14062       -0.26562        0.00000
 BRILLOUIN|   361           0.00195       -0.14062       -0.23438        0.00000
 BRILLOUIN|   362           0.00195       -0.14062       -0.20312        0.00000
 BRILLOUIN|   363           0.00195       -0.14062       -0.17188        0.00000
 BRILLOUIN|   364           0.00195       -0.14062       -0.14062        0.00000
 BRILLOUIN|   365           0.00195       -0.14062       -0.10938        0.00000
 BRILLOUIN|   366           0.00195       -0.14062       -0.07812        0.00000
 BRILLOUIN|   367           0.00195       -0.14062       -0.04688        0.00000
 BRILLOUIN|   368           0.00195       -0.14062       -0.01562        0.00000
 BRILLOUIN|   369           0.00195       -0.14062        0.01562        0.00000
 BRILLOUIN|   370           0.00195       -0.14062        0.04688        0.00000
 BRILLOUIN|   371           0.00195       -0.14062        0.07812        0.00000
 BRILLOUIN|   372           0.00195       -0.14062        0.10938        0.00000
 BRILLOUIN|   373           0.00195       -0.14062        0.14062        0.00000
 BRILLOUIN|   374           0.00195       -0.14062        0.17188        0.00000
 BRILLOUIN|   375           0.00195       -0.14062        0.20312        0.00000
 BRILLOUIN|   376           0.00195       -0.14062        0.23438        0.00000
 BRILLOUIN|   377           0.00195       -0.14062        0.26562        0.00000
 BRILLOUIN|   378           0.00195       -0.14062        0.29688        0.00000
 BRILLOUIN|   379           0.00195       -0.14062        0.32812        0.00000
 BRILLOUIN|   380           0.00195       -0.14062        0.35938        0.00000
 BRILLOUIN|   381           0.00195       -0.14062        0.39062        0.00000
 BRILLOUIN|   382           0.00195       -0.14062        0.42188        0.00000
 BRILLOUIN|   383           0.00195       -0.14062        0.45312        0.00000
 BRILLOUIN|   384           0.00195       -0.14062        0.48438        0.00000
 BRILLOUIN|   385           0.00195       -0.10938       -0.48438        0.00000
 BRILLOUIN|   386           0.00195       -0.10938       -0.45312        0.00000
 BRILLOUIN|   387           0.00195       -0.10938       -0.42188        0.00000
 BRILLOUIN|   388           0.00195       -0.10938       -0.39062        0.00000
 BRILLOUIN|   389           0.00195       -0.10938       -0.35938        0.00000
 BRILLOUIN|   390           0.00195       -0.10938       -0.32812        0.00000
 BRILLOUIN|   391           0.00195       -0.10938       -0.29688        0.00000
 BRILLOUIN|   392           0.00195       -0.10938       -0.26562        0.00000
 BRILLOUIN|   393           0.00195       -0.10938       -0.23438        0.00000
 BRILLOUIN|   394           0.00195       -0.10938       -0.20312        0.00000
 BRILLOUIN|   395           0.00195       -0.10938       -0.17188        0.00000
 BRILLOUIN|   396           0.00195       -0.10938       -0.14062        0.00000
 BRILLOUIN|   397           0.00195       -0.10938       -0.10938        0.00000
 BRILLOUIN|   398           0.00195       -0.10938       -0.07812        0.00000
 BRILLOUIN|   399           0.00195       -0.10938       -0.04688        0.00000
 BRILLOUIN|   400           0.00195       -0.10938       -0.01562        0.00000
 BRILLOUIN|   401           0.00195       -0.10938        0.01562        0.00000
 BRILLOUIN|   402           0.00195       -0.10938        0.04688        0.00000
 BRILLOUIN|   403           0.00195       -0.10938        0.07812        0.00000
 BRILLOUIN|   404           0.00195       -0.10938        0.10938        0.00000
 BRILLOUIN|   405           0.00195       -0.10938        0.14062        0.00000
 BRILLOUIN|   406           0.00195       -0.10938        0.17188        0.00000
 BRILLOUIN|   407           0.00195       -0.10938        0.20312        0.00000
 BRILLOUIN|   408           0.00195       -0.10938        0.23438        0.00000
 BRILLOUIN|   409           0.00195       -0.10938        0.26562        0.00000
 BRILLOUIN|   410           0.00195       -0.10938        0.29688        0.00000
 BRILLOUIN|   411           0.00195       -0.10938        0.32812        0.00000
 BRILLOUIN|   412           0.00195       -0.10938        0.35938        0.00000
 BRILLOUIN|   413           0.00195       -0.10938        0.39062        0.00000
 BRILLOUIN|   414           0.00195       -0.10938        0.42188        0.00000
 BRILLOUIN|   415           0.00195       -0.10938        0.45312        0.00000
 BRILLOUIN|   416           0.00195       -0.10938        0.48438        0.00000
 BRILLOUIN|   417           0.00195       -0.07812       -0.48438        0.00000
 BRILLOUIN|   418           0.00195       -0.07812       -0.45312        0.00000
 BRILLOUIN|   419           0.00195       -0.07812       -0.42188        0.00000
 BRILLOUIN|   420           0.00195       -0.07812       -0.39062        0.00000
 BRILLOUIN|   421           0.00195       -0.07812       -0.35938        0.00000
 BRILLOUIN|   422           0.00195       -0.07812       -0.32812        0.00000
 BRILLOUIN|   423           0.00195       -0.07812       -0.29688        0.00000
 BRILLOUIN|   424           0.00195       -0.07812       -0.26562        0.00000
 BRILLOUIN|   425           0.00195       -0.07812       -0.23438        0.00000
 BRILLOUIN|   426           0.00195       -0.07812       -0.20312        0.00000
 BRILLOUIN|   427           0.00195       -0.07812       -0.17188        0.00000
 BRILLOUIN|   428           0.00195       -0.07812       -0.14062        0.00000
 BRILLOUIN|   429           0.00195       -0.07812       -0.10938        0.00000
 BRILLOUIN|   430           0.00195       -0.07812       -0.07812        0.00000
 BRILLOUIN|   431           0.00195       -0.07812       -0.04688        0.00000
 BRILLOUIN|   432           0.00195       -0.07812       -0.01562        0.00000
 BRILLOUIN|   433           0.00195       -0.07812        0.01562        0.00000
 BRILLOUIN|   434           0.00195       -0.07812        0.04688        0.00000
 BRILLOUIN|   435           0.00195       -0.07812        0.07812        0.00000
 BRILLOUIN|   436           0.00195       -0.07812        0.10938        0.00000
 BRILLOUIN|   437           0.00195       -0.07812        0.14062        0.00000
 BRILLOUIN|   438           0.00195       -0.07812        0.17188        0.00000
 BRILLOUIN|   439           0.00195       -0.07812        0.20312        0.00000
 BRILLOUIN|   440           0.00195       -0.07812        0.23438        0.00000
 BRILLOUIN|   441           0.00195       -0.07812        0.26562        0.00000
 BRILLOUIN|   442           0.00195       -0.07812        0.29688        0.00000
 BRILLOUIN|   443           0.00195       -0.07812        0.32812        0.00000
 BRILLOUIN|   444           0.00195       -0.07812        0.35938        0.00000
 BRILLOUIN|   445           0.00195       -0.07812        0.39062        0.00000
 BRILLOUIN|   446           0.00195       -0.07812        0.42188        0.00000
 BRILLOUIN|   447           0.00195       -0.07812        0.45312        0.00000
 BRILLOUIN|   448           0.00195       -0.07812        0.48438        0.00000
 BRILLOUIN|   449           0.00195       -0.04688       -0.48438        0.00000
 BRILLOUIN|   450           0.00195       -0.04688       -0.45312        0.00000
 BRILLOUIN|   451           0.00195       -0.04688       -0.42188        0.00000
 BRILLOUIN|   452           0.00195       -0.04688       -0.39062        0.00000
 BRILLOUIN|   453           0.00195       -0.04688       -0.35938        0.00000
 BRILLOUIN|   454           0.00195       -0.04688       -0.32812        0.00000
 BRILLOUIN|   455           0.00195       -0.04688       -0.29688        0.00000
 BRILLOUIN|   456           0.00195       -0.04688       -0.26562        0.00000
 BRILLOUIN|   457           0.00195       -0.04688       -0.23438        0.00000
 BRILLOUIN|   458           0.00195       -0.04688       -0.20312        0.00000
 BRILLOUIN|   459           0.00195       -0.04688       -0.17188        0.00000
 BRILLOUIN|   460           0.00195       -0.04688       -0.14062        0.00000
 BRILLOUIN|   461           0.00195       -0.04688       -0.10938        0.00000
 BRILLOUIN|   462           0.00195       -0.04688       -0.07812        0.00000
 BRILLOUIN|   463           0.00195       -0.04688       -0.04688        0.00000
 BRILLOUIN|   464           0.00195       -0.04688       -0.01562        0.00000
 BRILLOUIN|   465           0.00195       -0.04688        0.01562        0.00000
 BRILLOUIN|   466           0.00195       -0.04688        0.04688        0.00000
 BRILLOUIN|   467           0.00195       -0.04688        0.07812        0.00000
 BRILLOUIN|   468           0.00195       -0.04688        0.10938        0.00000
 BRILLOUIN|   469           0.00195       -0.04688        0.14062        0.00000
 BRILLOUIN|   470           0.00195       -0.04688        0.17188        0.00000
 BRILLOUIN|   471           0.00195       -0.04688        0.20312        0.00000
 BRILLOUIN|   472           0.00195       -0.04688        0.23438        0.00000
 BRILLOUIN|   473           0.00195       -0.04688        0.26562        0.00000
 BRILLOUIN|   474           0.00195       -0.04688        0.29688        0.00000
 BRILLOUIN|   475           0.00195       -0.04688        0.32812        0.00000
 BRILLOUIN|   476           0.00195       -0.04688        0.35938        0.00000
 BRILLOUIN|   477           0.00195       -0.04688        0.39062        0.00000
 BRILLOUIN|   478           0.00195       -0.04688        0.42188        0.00000
 BRILLOUIN|   479           0.00195       -0.04688        0.45312        0.00000
 BRILLOUIN|   480           0.00195       -0.04688        0.48438        0.00000
 BRILLOUIN|   481           0.00195       -0.01562       -0.48438        0.00000
 BRILLOUIN|   482           0.00195       -0.01562       -0.45312        0.00000
 BRILLOUIN|   483           0.00195       -0.01562       -0.42188        0.00000
 BRILLOUIN|   484           0.00195       -0.01562       -0.39062        0.00000
 BRILLOUIN|   485           0.00195       -0.01562       -0.35938        0.00000
 BRILLOUIN|   486           0.00195       -0.01562       -0.32812        0.00000
 BRILLOUIN|   487           0.00195       -0.01562       -0.29688        0.00000
 BRILLOUIN|   488           0.00195       -0.01562       -0.26562        0.00000
 BRILLOUIN|   489           0.00195       -0.01562       -0.23438        0.00000
 BRILLOUIN|   490           0.00195       -0.01562       -0.20312        0.00000
 BRILLOUIN|   491           0.00195       -0.01562       -0.17188        0.00000
 BRILLOUIN|   492           0.00195       -0.01562       -0.14062        0.00000
 BRILLOUIN|   493           0.00195       -0.01562       -0.10938        0.00000
 BRILLOUIN|   494           0.00195       -0.01562       -0.07812        0.00000
 BRILLOUIN|   495           0.00195       -0.01562       -0.04688        0.00000
 BRILLOUIN|   496           0.00195       -0.01562       -0.01562        0.00000
 BRILLOUIN|   497           0.00195       -0.01562        0.01562        0.00000
 BRILLOUIN|   498           0.00195       -0.01562        0.04688        0.00000
 BRILLOUIN|   499           0.00195       -0.01562        0.07812        0.00000
 BRILLOUIN|   500           0.00195       -0.01562        0.10938        0.00000
 BRILLOUIN|   501           0.00195       -0.01562        0.14062        0.00000
 BRILLOUIN|   502           0.00195       -0.01562        0.17188        0.00000
 BRILLOUIN|   503           0.00195       -0.01562        0.20312        0.00000
 BRILLOUIN|   504           0.00195       -0.01562        0.23438        0.00000
 BRILLOUIN|   505           0.00195       -0.01562        0.26562        0.00000
 BRILLOUIN|   506           0.00195       -0.01562        0.29688        0.00000
 BRILLOUIN|   507           0.00195       -0.01562        0.32812        0.00000
 BRILLOUIN|   508           0.00195       -0.01562        0.35938        0.00000
 BRILLOUIN|   509           0.00195       -0.01562        0.39062        0.00000
 BRILLOUIN|   510           0.00195       -0.01562        0.42188        0.00000
 BRILLOUIN|   511           0.00195       -0.01562        0.45312        0.00000
 BRILLOUIN|   512           0.00195       -0.01562        0.48438        0.00000
 *******************************************************************************

 *******************************************************************************
 *******************************************************************************
 **                                                                           **
 **     #####                         ##              ##                      **
 **    ##   ##            ##          ##              ##                      **
 **   ##     ##                       ##            ######                    **
 **   ##     ##  ##   ##  ##   #####  ##  ##   ####   ##    #####    #####    **
 **   ##     ##  ##   ##  ##  ##      ## ##   ##      ##   ##   ##  ##   ##   **
 **   ##  ## ##  ##   ##  ##  ##      ####     ###    ##   ######   ######    **
 **    ##  ###   ##   ##  ##  ##      ## ##      ##   ##   ##       ##        **
 **     #######   #####   ##   #####  ##  ##  ####    ##    #####   ##        **
 **           ##                                                    ##        **
 **                                                                           **
 **                                                ... make the atoms dance   **
 **                                                                           **
 **            Copyright (C) by CP2K developers group (2000-2025)             **
 **                      J. Chem. Phys. 152, 194103 (2020)                    **
 **                                                                           **
 *******************************************************************************

 DFT| Spin restricted Kohn-Sham (RKS) calculation                            RKS
 DFT| Multiplicity                                                             1
 DFT| Number of spin states                                                    1
 DFT| Charge                                                                   0
 DFT| Self-interaction correction (SIC)                                       NO
 DFT| Cutoffs: density                                              1.000000E-10
 DFT|          gradient                                             1.000000E-10
 DFT|          tau                                                  1.000000E-10
 DFT|          cutoff_smoothing_range                               0.000000E+00
 DFT| XC density smoothing                                                  NONE
 DFT| XC derivatives                                                          PW

 FUNCTIONAL| PBE:
 FUNCTIONAL| J.P.Perdew, K.Burke, M.Ernzerhof, Phys. Rev. Letter, vol. 77, n 18,
 FUNCTIONAL|  pp. 3865-3868, (1996) {spin unpolarized}                          


 QS| Method:                                                                GAPW
 QS| Density plane wave grid type                        NON-SPHERICAL FULLSPACE
 QS| Number of grid levels:                                                    4
 QS| Density cutoff [a.u.]:                                                250.0
 QS| Multi grid cutoff [a.u.]: 1) grid level                               250.0
 QS|                           2) grid level                                83.3
 QS|                           3) grid level                                27.8
 QS|                           4) grid level                                 9.3
 QS| Grid level progression factor:                                          3.0
 QS| Relative density cutoff [a.u.]:                                        50.0
 QS| Interaction thresholds: eps_pgf_orb:                                1.0E-12
 QS|                         eps_filter_matrix:                          0.0E+00
 QS|                         eps_core_charge:                            1.0E-14
 QS|                         eps_rho_gspace:                             1.0E-12
 QS|                         eps_rho_rspace:                             1.0E-12
 QS|                         eps_gvg_rspace:                             1.0E-06
 QS|                         eps_ppl:                                    1.0E-02
 QS|                         eps_ppnl:                                   1.0E-08
 QS| GAPW|      One center basis from orbital basis primitives
 QS| GAPW|                   eps_fit:                                    1.0E-04
 QS| GAPW|                   eps_iso:                                    1.0E-12
 QS| GAPW|                   eps_svd:                                    1.0E-08
 QS| GAPW|                   eps_cpc:                                    1.0E-12
 QS| GAPW|   atom-r-grid: quadrature:                                     GC_LOG
 QS| GAPW|      atom-s-grid:  max l :                                          6
 QS| GAPW|      max_l_rho0 :                                                   2
 QS| GAPW|      At least one kind is NOT PAW, i.e. it has only soft AO 
 QS| GAPW|      The NOT PAW atoms are treated fully GPW


 ATOMIC KIND INFORMATION

  1. Atomic kind: W                                     Number of atoms:       1

     Orbital Basis Set                                   DZVP-MOLOPT-PBE-GTH-q14

       Number of orbital shell sets:                                           1
       Number of orbital shells:                                               8
       Number of primitive Cartesian functions:                                6
       Number of Cartesian basis functions:                                   31
       Number of spherical basis functions:                                   26
       Norm type:                                                              2

       Normalised Cartesian orbitals:

                        Set   Shell   Orbital            Exponent    Coefficient

                          1       1    2s                3.202637       0.390454
                                                         2.970404       0.395569
                                                         1.054481      -0.613576
                                                         0.447462      -0.093621
                                                         0.172572      -0.034869
                                                         0.057796      -0.016637

                          1       2    3s                3.202637      -0.614093
                                                         2.970404       0.668497
                                                         1.054481      -0.142499
                                                         0.447462      -0.095130
                                                         0.172572       0.077989
                                                         0.057796       0.068808

                          1       3    4s                3.202637       1.092716
                                                         2.970404      -0.653617
                                                         1.054481       0.053652
                                                         0.447462       0.074208
                                                         0.172572      -0.385158
                                                         0.057796       0.131678

                          1       4    3px               3.202637       6.040412
                                                         2.970404      -4.932675
                                                         1.054481      -0.974837
                                                         0.447462      -0.208773
                                                         0.172572      -0.008465
                                                         0.057796      -0.000597
                          1       4    3py               3.202637       6.040412
                                                         2.970404      -4.932675
                                                         1.054481      -0.974837
                                                         0.447462      -0.208773
                                                         0.172572      -0.008465
                                                         0.057796      -0.000597
                          1       4    3pz               3.202637       6.040412
                                                         2.970404      -4.932675
                                                         1.054481      -0.974837
                                                         0.447462      -0.208773
                                                         0.172572      -0.008465
                                                         0.057796      -0.000597

                          1       5    4px               3.202637      -0.456554
                                                         2.970404       0.501115
                                                         1.054481      -0.482085
                                                         0.447462       0.002190
                                                         0.172572       0.123686
                                                         0.057796       0.014461
                          1       5    4py               3.202637      -0.456554
                                                         2.970404       0.501115
                                                         1.054481      -0.482085
                                                         0.447462       0.002190
                                                         0.172572       0.123686
                                                         0.057796       0.014461
                          1       5    4pz               3.202637      -0.456554
                                                         2.970404       0.501115
                                                         1.054481      -0.482085
                                                         0.447462       0.002190
                                                         0.172572       0.123686
                                                         0.057796       0.014461

                          1       6    4dx2              3.202637      -1.177086
                                                         2.970404       1.305064
                                                         1.054481       0.508845
                                                         0.447462       0.161140
                                                         0.172572       0.030785
                                                         0.057796       0.001694
                          1       6    4dxy              3.202637      -2.038772
                                                         2.970404       2.260437
                                                         1.054481       0.881345
                                                         0.447462       0.279102
                                                         0.172572       0.053320
                                                         0.057796       0.002935
                          1       6    4dxz              3.202637      -2.038772
                                                         2.970404       2.260437
                                                         1.054481       0.881345
                                                         0.447462       0.279102
                                                         0.172572       0.053320
                                                         0.057796       0.002935
                          1       6    4dy2              3.202637      -1.177086
                                                         2.970404       1.305064
                                                         1.054481       0.508845
                                                         0.447462       0.161140
                                                         0.172572       0.030785
                                                         0.057796       0.001694
                          1       6    4dyz              3.202637      -2.038772
                                                         2.970404       2.260437
                                                         1.054481       0.881345
                                                         0.447462       0.279102
                                                         0.172572       0.053320
                                                         0.057796       0.002935
                          1       6    4dz2              3.202637      -1.177086
                                                         2.970404       1.305064
                                                         1.054481       0.508845
                                                         0.447462       0.161140
                                                         0.172572       0.030785
                                                         0.057796       0.001694

                          1       7    5dx2              3.202637       1.244992
                                                         2.970404      -1.375352
                                                         1.054481      -0.529259
                                                         0.447462      -0.172753
                                                         0.172572       0.033139
                                                         0.057796       0.007534
                          1       7    5dxy              3.202637       2.156390
                                                         2.970404      -2.382180
                                                         1.054481      -0.916703
                                                         0.447462      -0.299217
                                                         0.172572       0.057398
                                                         0.057796       0.013049
                          1       7    5dxz              3.202637       2.156390
                                                         2.970404      -2.382180
                                                         1.054481      -0.916703
                                                         0.447462      -0.299217
                                                         0.172572       0.057398
                                                         0.057796       0.013049
                          1       7    5dy2              3.202637       1.244992
                                                         2.970404      -1.375352
                                                         1.054481      -0.529259
                                                         0.447462      -0.172753
                                                         0.172572       0.033139
                                                         0.057796       0.007534
                          1       7    5dyz              3.202637       2.156390
                                                         2.970404      -2.382180
                                                         1.054481      -0.916703
                                                         0.447462      -0.299217
                                                         0.172572       0.057398
                                                         0.057796       0.013049
                          1       7    5dz2              3.202637       1.244992
                                                         2.970404      -1.375352
                                                         1.054481      -0.529259
                                                         0.447462      -0.172753
                                                         0.172572       0.033139
                                                         0.057796       0.007534

                          1       8    5fx3              3.202637       0.175204
                                                         2.970404       0.110416
                                                         1.054481      -0.252513
                                                         0.447462      -0.154881
                                                         0.172572      -0.010571
                                                         0.057796       0.000077
                          1       8    5fx2y             3.202637       0.391768
                                                         2.970404       0.246898
                                                         1.054481      -0.564636
                                                         0.447462      -0.346325
                                                         0.172572      -0.023638
                                                         0.057796       0.000172
                          1       8    5fx2z             3.202637       0.391768
                                                         2.970404       0.246898
                                                         1.054481      -0.564636
                                                         0.447462      -0.346325
                                                         0.172572      -0.023638
                                                         0.057796       0.000172
                          1       8    5fxy2             3.202637       0.391768
                                                         2.970404       0.246898
                                                         1.054481      -0.564636
                                                         0.447462      -0.346325
                                                         0.172572      -0.023638
                                                         0.057796       0.000172
                          1       8    5fxyz             3.202637       0.678562
                                                         2.970404       0.427640
                                                         1.054481      -0.977979
                                                         0.447462      -0.599852
                                                         0.172572      -0.040941
                                                         0.057796       0.000298
                          1       8    5fxz2             3.202637       0.391768
                                                         2.970404       0.246898
                                                         1.054481      -0.564636
                                                         0.447462      -0.346325
                                                         0.172572      -0.023638
                                                         0.057796       0.000172
                          1       8    5fy3              3.202637       0.175204
                                                         2.970404       0.110416
                                                         1.054481      -0.252513
                                                         0.447462      -0.154881
                                                         0.172572      -0.010571
                                                         0.057796       0.000077
                          1       8    5fy2z             3.202637       0.391768
                                                         2.970404       0.246898
                                                         1.054481      -0.564636
                                                         0.447462      -0.346325
                                                         0.172572      -0.023638
                                                         0.057796       0.000172
                          1       8    5fyz2             3.202637       0.391768
                                                         2.970404       0.246898
                                                         1.054481      -0.564636
                                                         0.447462      -0.346325
                                                         0.172572      -0.023638
                                                         0.057796       0.000172
                          1       8    5fz3              3.202637       0.175204
                                                         2.970404       0.110416
                                                         1.054481      -0.252513
                                                         0.447462      -0.154881
                                                         0.172572      -0.010571
                                                         0.057796       0.000077

     RI Auxiliary Basis Set             RI_aug-DZVP-MOLOPT-GTH_N_RI_104_s_p_d_f_

       Number of orbital shell sets:                                          22
       Number of orbital shells:                                              22
       Number of primitive Cartesian functions:                               22
       Number of Cartesian basis functions:                                  154
       Number of spherical basis functions:                                  104
       Norm type:                                                              2

       Normalised Cartesian orbitals:

                        Set   Shell   Orbital            Exponent    Coefficient

                          1       1    1s                0.186210       0.202029

                          2       1   12dx2              0.195191       0.094344
                          2       1   12dxy              0.195191       0.163409
                          2       1   12dxz              0.195191       0.163409
                          2       1   12dy2              0.195191       0.094344
                          2       1   12dyz              0.195191       0.163409
                          2       1   12dz2              0.195191       0.094344

                          3       1    7px               0.216510       0.210517
                          3       1    7py               0.216510       0.210517
                          3       1    7pz               0.216510       0.210517

                          4       1   16fx3              0.340968       0.130786
                          4       1   16fx2y             0.340968       0.292447
                          4       1   16fx2z             0.340968       0.292447
                          4       1   16fxy2             0.340968       0.292447
                          4       1   16fxyz             0.340968       0.506532
                          4       1   16fxz2             0.340968       0.292447
                          4       1   16fy3              0.340968       0.130786
                          4       1   16fy2z             0.340968       0.292447
                          4       1   16fyz2             0.340968       0.292447
                          4       1   16fz3              0.340968       0.130786

                          5       1    2s                0.368288       0.336938

                          6       1    8px               0.489341       0.583384
                          6       1    8py               0.489341       0.583384
                          6       1    8pz               0.489341       0.583384

                          7       1   13dx2              0.546724       0.572142
                          7       1   13dxy              0.546724       0.990978
                          7       1   13dxz              0.546724       0.990978
                          7       1   13dy2              0.546724       0.572142
                          7       1   13dyz              0.546724       0.990978
                          7       1   13dz2              0.546724       0.572142

                          8       1   19gx4              0.699015       0.415694
                          8       1   19gx3y             0.699015       1.099823
                          8       1   19gx3z             0.699015       1.099823
                          8       1   19gx2y2            0.699015       1.419865
                          8       1   19gx2yz            0.699015       2.459279
                          8       1   19gx2z2            0.699015       1.419865
                          8       1   19gxy3             0.699015       1.099823
                          8       1   19gxy2z            0.699015       2.459279
                          8       1   19gxyz2            0.699015       2.459279
                          8       1   19gxz3             0.699015       1.099823
                          8       1   19gy4              0.699015       0.415694
                          8       1   19gy3z             0.699015       1.099823
                          8       1   19gy2z2            0.699015       1.419865
                          8       1   19gyz3             0.699015       1.099823
                          8       1   19gz4              0.699015       0.415694

                          9       1    3s                0.716449       0.555008

                         10       1    9px               0.839563       1.145531
                         10       1    9py               0.839563       1.145531
                         10       1    9pz               0.839563       1.145531

                         11       1   22ix6              0.888733       0.287455
                         11       1   22ix5y             0.888733       0.953381
                         11       1   22ix5z             0.888733       0.953381
                         11       1   22ix4y2            0.888733       1.651305
                         11       1   22ix4yz            0.888733       2.860144
                         11       1   22ix4z2            0.888733       1.651305
                         11       1   22ix3y3            0.888733       1.953850
                         11       1   22ix3y2z           0.888733       4.368942
                         11       1   22ix3yz2           0.888733       4.368942
                         11       1   22ix3z3            0.888733       1.953850
                         11       1   22ix2y4            0.888733       1.651305
                         11       1   22ix2y3z           0.888733       4.368942
                         11       1   22ix2y2z2          0.888733       5.640280
                         11       1   22ix2yz3           0.888733       4.368942
                         11       1   22ix2z4            0.888733       1.651305
                         11       1   22ixy5             0.888733       0.953381
                         11       1   22ixy4z            0.888733       2.860144
                         11       1   22ixy3z2           0.888733       4.368942
                         11       1   22ixy2z3           0.888733       4.368942
                         11       1   22ixyz4            0.888733       2.860144
                         11       1   22ixz5             0.888733       0.953381
[...]
 Gaussian basis sets for accurate calculations on molecular systems in gas and 
 condensed phases.
 https://doi.org/10.1063/1.2770708

 M. Krack.
 Theor. Chem. Acc. 114, 145-152 (2005).
 Pseudopotentials for H to Kr optimized for gradient-corrected 
 exchange-correlation functionals.
 https://doi.org/10.1007/s00214-005-0655-y

 M. Frigo, S. G. Johnson.
 Proc. IEEE 93, 216-231 (2005).
 The design and implementation of FFTW3.
 https://doi.org/10.1109/JPROC.2004.840301

 M. Krack, M. Parrinello.
 Phys. Chem. Chem. Phys. 2, 2105-2112 (2000).
 All-electron ab-initio molecular dynamics.
 https://doi.org/10.1039/b001167n

 G. Lippert, J. Hutter, M. Parrinello.
 Theor. Chem. Acc. 103, 124-140 (1999).
 The Gaussian and augmented-plane-wave density functional method for ab initio 
 molecular dynamics simulations.
 https://doi.org/10.1007/s002140050523

 C. Hartwigsen, S. Goedecker, J. Hutter.
 Phys. Rev. B 58, 3641-3662 (1998).
 Relativistic separable dual-space Gaussian pseudopotentials from H to Rn.
 https://doi.org/10.1103/PhysRevB.58.3641

 S. Goedecker, M. Teter, J. Hutter.
 Phys. Rev. B 54, 1703-1710 (1996).
 Separable dual-space Gaussian pseudopotentials.
 https://doi.org/10.1103/PhysRevB.54.1703

 J. P. Perdew, K. Burke, M. Ernzerhof.
 Phys. Rev. Lett. 77, 3865-3868 (1996).
 Generalized gradient approximation made simple.
 https://doi.org/10.1103/PhysRevLett.77.3865


 -------------------------------------------------------------------------------
 -                                                                             -
 -                                T I M I N G                                  -
 -                                                                             -
 -------------------------------------------------------------------------------
 SUBROUTINE                       CALLS  ASD         SELF TIME        TOTAL TIME
                                MAXIMUM       AVERAGE  MAXIMUM  AVERAGE  MAXIMUM
 CP2K                                 1  1.0     0.01     0.02 35399.82 35399.82
 qs_energies                          1  2.0     0.00     0.00 35398.25 35398.31
 qs_energies_properties               1  3.0     0.00     0.00 35004.06 35004.12
 post_scf_bandstructure               1  4.0     0.00     0.00 35004.06 35004.12
 gw                                   1  5.0     0.00     0.00 34914.07 34914.08
 gw_calc_small_cell_full_kp           1  6.0     0.01     0.01 34310.41 34310.42
 dbt_total                      *******  9.9    72.42    80.89 15944.61 16930.05
 compute_W_real_space                 1  7.0    41.96    42.38 15246.46 15246.56
 compute_Minv_and_Vsqrt               1  8.0     0.46     0.48 13469.35 13469.95
 build_2c_coulomb_matrix_kp_sma       2  9.0    14.73    15.64 13441.72 13441.80
 dbt_contract                   ******* 10.6   115.68   127.65 12389.47 13152.81
 build_2c_coulomb_matrix_kp_sma  655360 10.0 11833.58 12654.66 11833.58 12654.66
 dbt_tas_multiply               5148664 13.0    11.95    13.39 11462.41 12232.86
 dbt_tas_total                  5148664 14.0   584.16   639.48 11454.88 12225.14
 compute_Sigma_c                      1  7.0     0.01     0.01 10470.83 10470.87
 compute_chi                          1  7.0     0.13     0.14  8136.07  8136.25
 contract_to_Sigma                  427  8.0   104.50   125.29  6078.16  6611.55
 dbt_tas_dbm                    5148664 15.0    10.66    12.22  4960.21  5344.62
 dbm_multiply                   5148664 17.0  4935.98  5318.57  4935.98  5318.57
 contract_M_occ_vir_to_chi          210  8.0   177.31   212.45  3471.30  4549.00
 mp_sync                        ******* 11.9  3041.65  4314.36  3041.65  4314.36
 dbt_copy                       ******* 11.1    68.58    74.86  3953.73  4274.09
 contract_W                         217  8.0    15.04    15.82  3603.26  3986.91
 contract_to_Sigma_3c_x_G       4491857  9.0    11.34    12.22  3532.87  3920.91
 dbt_tas_estimate_result_nze    2574332 13.5   929.02  1007.07  3257.94  3587.14
 G_times_3c                       22080  8.0    18.97    19.81  3338.08  3583.43
 dbt_reshape                    7206181 12.0  2230.17  2460.07  2852.20  3154.58
 contract_to_Sigma_contract       22448  9.0    21.35    23.94  2412.14  2797.57
 dbt_tas_mm_2                   1869864 16.1     4.74     6.15  2160.79  2659.68
 get_t_3c_int                   7031287  9.6    76.29    94.97  2085.13  2369.49
 dbt_tas_mm_3T                  2082288 16.2     3.16     3.84  1706.09  1843.35
 reshape_mm_small               5148664 15.0   483.92   547.18  1183.63  1256.35
 dbt_tas_reshape                5747172 15.5    79.69    90.86  1145.71  1244.41
 dbt_tas_mm_1N                  1371266 15.5     1.90     2.28  1080.16  1154.51
 convert_to_new_pgrid           ******* 15.0   105.23   120.41   968.74  1043.50
 dbm_copy                       ******* 16.0   863.51   931.92   863.51   931.92
 dbm_reserve_blocks             ******* 16.5   747.41   849.28   747.41   849.28
 dbt_tas_reserve_blocks_index   ******* 15.7    32.81    36.00   733.64   820.22
 dbt_tas_create_split           ******* 16.0    18.79    22.75   635.76   698.35
 dbt_tas_copy                   4735044 12.6   394.35   477.59   564.28   690.15
 dbt_tas_create_split_rows_or_c ******* 17.0    74.06    79.77   616.97   678.70
 add_V_L                         327680 10.0    20.68   666.30    20.68   666.30
 dbt_remap                       327767 11.0    51.30    56.15   601.13   649.89
 reshape_mm_compatible          5148664 15.0    98.25   104.63   587.48   629.80
 add_rs_to_ikp                  *******  9.9   612.71   628.55   612.71   628.55
 trafo_rs_to_ikp                  10736  8.1     8.39     8.84   593.04   604.53
 create_and_init_bs_env_for_gw        1  6.0     0.00     0.00   603.66   603.68
 dbt_copy_nocomm                1591020 11.0   294.71   428.92   398.95   578.90
 compute_3c_integrals                 1  7.0     0.10     0.10   553.60   553.60
 build_3c_integrals                   1  8.0   483.16   539.73   496.08   552.88
 dbt_tas_reshape_buffer_fill    5747172 16.5   509.80   551.12   509.80   551.12
 add_ikp_to_rs                  *******  9.9   493.21   549.74   493.21   549.74
 dbt_reserve_blocks_index_array 8415665 13.0    11.96    13.82   452.69   521.79
 dbt_reserve_blocks_index       8584528 13.9    16.03    18.40   452.98   521.08
 dbt_tas_replicate              5148664 15.0   269.98   293.76   475.70   516.53
 add_ikp_to_all_rs                 9848  8.0     6.91     7.78   458.96   483.57
 dbt_tas_distribution_new       ******* 15.8   231.19   250.37   432.93   470.11
 dbcsr_complete_redistribute     490552  9.6    17.58    24.50   411.56   456.50
 change_split                   7124488 15.5    35.65    39.22   408.49   445.21
 dbt_tas_reshape_buffer_obtain  5747172 16.5   299.44   328.50   396.66   439.59
 G_occ_vir                          121  8.0     0.51     0.62   433.04   435.92
 copy_dbcsr_to_fm                274649  8.0     3.21     3.66   395.72   400.68
 fm_to_local_array                  934  8.1   120.95   123.95   397.74   398.67
 scf_env_do_scf                       1  3.0     0.00     0.00   393.99   393.99
 scf_env_do_scf_inner_loop           68  4.0     0.01     0.02   393.99   393.99
 fm_to_local_tensor              146072  9.0     3.37     4.12   385.83   385.88
 mp_cart_create                 ******* 16.7   325.23   355.52   349.13   382.97
 qs_scf_new_mos_kp                   68  5.0     0.00     0.00   381.26   381.35
 do_general_diag_kp                  68  6.0     0.77     0.84   381.26   381.35
 compute_Sigma_x                      1  7.0     0.01     0.01   341.12   341.16
 mp_sum_dm                       655427 10.0   303.62   317.59   303.62   317.59
 dbt_tas_reserve_blocks_templat 9475106 14.1    55.20    68.23   257.72   301.37
 mp_sum_dm3                        1063  9.0   285.30   285.84   285.30   285.84
 dbt_communicate_buffer         7206181 13.0   253.73   282.25   253.73   282.25
 mp_alltoall_i22                 918529 10.0   214.80   273.41   214.80   273.41
 dbm_add                        5148664 15.0   241.12   260.81   241.12   260.81
 dbcsr_desymmetrize_deep         427977  8.4     7.39     8.88   241.26   250.57
 power                            20408  8.0    23.69    24.16   231.90   238.23
 copy_fm_to_dbcsr                215903  9.4     1.03     1.14   190.33   234.19
 mp_comm_dup                    ******* 18.6   192.01   209.90   203.12   223.02
 global_matrix_to_local_matrix   146072 10.0     3.00     5.84   175.15   221.37
 diag_complex                     20408  9.0   208.21   214.17   208.21   214.17
 dbt_tas_merge                  1869864 15.1   104.24   142.53   135.43   187.91
 dbt_tas_create_new             ******* 15.3   166.04   185.20   166.04   185.20
 local_dbt_to_global_fm              91  8.0     0.34     0.38   178.11   178.11
 dbt_permute_index              ******* 12.2   143.27   155.50   161.12   175.79
 mp_waitall_1                   1467556 11.1   132.21   175.29   132.21   175.29
 send_data                       146072 11.0     0.19     0.23   133.15   173.03
 communicate_buffer              146072 12.0     2.67    22.92   132.96   172.83
 fm_add_ikp_to_rs                123904  9.0    78.00    80.73   119.20   166.79
 mp_comm_split_direct           ******* 18.0   131.22   146.08   139.06   155.47
 dbt_reserve_blocks_template    1591020 12.0     7.25    10.71   104.24   149.98
 mp_comm_free                   ******* 15.7   134.05   144.27   134.05   144.27
 mp_alltoall_d11v               2755587 10.5   132.65   142.24   132.65   142.24
 fm_MWM_R_t_to_local_tensor_W_R      30  8.0     0.05     0.05   138.36   138.37
 dbt_tas_communicate_buffer     ******* 17.3   122.97   133.18   122.97   133.18
 mp_alltoall_i11v               1899633 10.3   126.98   131.47   126.98   131.47
 dbt_align_index                7722996 11.5    19.78    21.88   121.00   129.97
 cp_cfm_gemm                     284468 10.9   111.97   126.60   111.97   126.60
 parallel_gemm_cfm               280952  8.9     0.26     0.28   111.75   126.38
 parallel_gemm_cfm_gemm          280952  9.9     0.26     0.29   111.48   126.12
 dbt_tas_reshape_communicate_bu 5747172 16.5     8.21     9.56   110.63   121.76
 mult_W_with_Minv                    30  8.0     1.98     2.01   118.93   119.00
 compute_QP_energies                  1  7.0     0.07     0.11   115.92   115.96
 trafo_to_k_and_nn                71492  8.0     0.49     0.58   115.64   115.67
 add_R                          *******  9.3    76.69    82.94   103.13   111.41
 dbt_tas_mp_comm                2873586 13.2    11.56    12.59    98.18   109.60
 dbm_filter                     7606453 14.9    84.97   108.20    84.97   108.20
 get_data                        146072 11.0     7.02    90.67     7.44    91.20
 fm_trafo_rs_to_ikp               71492  9.0    46.45    47.49    74.52    80.84
 dbt_destroy                    ******* 11.1    64.29    70.68    69.56    76.31
 kpoint_density_transform            68  7.0     0.23     0.26    75.61    75.65
 get_V_tr_R                          34  9.0     0.19     0.21    74.70    74.79
 dbcsr_finalize                 1898703 11.0    13.40    16.60    57.43    73.65
 dbt_distribution_new_expert     947688 12.2    11.82    14.17    64.51    72.55
 reshape_mm_template             655534 15.5    36.00    39.33    64.64    70.42
 dbm_scale                      ******* 13.2    50.75    69.28    50.75    69.28
 hybrid_alltoall_any             427977  9.4     2.15     2.54    63.25    67.40
 local_dbt_to_global_mat          87451  9.0     1.10     1.36    39.81    67.09
 mp_cart_sub                     549377 10.0    59.65    59.96    59.65    59.96
 mp_cart_get                    ******* 16.0    52.13    58.80    52.13    58.80
 cp_cfm_heevd                      4960  7.5     0.01     0.01    57.89    58.00
 cp_cfm_heevd_base                 4960  8.5    57.88    57.99    57.88    57.99
 local_matrix_to_global_matrix    87451 10.0     0.39     0.42    31.07    57.63
 cp_fm_start_copy_general        208896  7.3     1.91     3.50    51.71    52.70
 mp_comm_size                   ******* 15.7    41.67    50.02    41.67    50.02
 mp_isend_dv                    ******* 12.1     1.91    49.96     1.91    49.96
 is_cell_in_index_to_cell       *******  9.8    45.32    47.67    45.32    47.67
 dos_pdos_ldos                        1  5.0     0.01     0.01    44.72    44.77
 dbcsr_filter_anytype            660319 11.0     4.66     5.18    31.93    44.45
 mp_allgather_i                  417792  8.3    40.42    43.19    40.42    43.19
 SOC_ev                            2344  6.0     0.03     0.03    42.01    42.05
 rskp_transform                   76664  7.1     0.95    41.00     0.95    41.00
 dbt_create_new                  473844 11.7     7.77    10.19    35.60    39.61
 dbt_tas_reshape_get_coord      5747172 16.5    33.27    37.45    33.27    37.45
 dbcsr_merge_all                 718192 11.8    20.83    26.98    28.32    36.37
 mp_comm_rank                   ******* 15.7    31.24    35.70    31.24    35.70
 dbt_create_3c_R1_R2                 62  8.0     5.27     5.82    32.52    35.07
 mp_alltoall_i                  ******* 14.9    29.22    32.43    29.22    32.43
 dbt_create_matrix               146072 10.0     1.85     2.03    30.51    32.36
 dbt_create_template            2976280  9.0    29.03    31.44    29.03    31.44
 create_and_init_bs_env               1  5.0     0.00     0.00    30.86    30.86
 compute_cfm_mo_coeff_kp_and_ei       1  6.0     0.01     0.01    30.86    30.86
 set_blocks                       87451 11.0     1.94    15.15     9.76    28.98
 rsmat_to_kp                       7032  7.2     0.12     0.12    27.79    27.95
 heuristic_RI_regularization          1  7.0     0.00     0.00    23.91    23.91
 cp_cfm_geeig_canon                1172  7.0     0.01     0.01    21.24    21.28
 mp_sum_l                       ******* 15.2    18.82    21.23    18.82    21.23
 dbt_tas_replicate_communicate_ 3453554 15.9     4.84     5.38    19.24    20.95
 dbt_pgrid_create_expert         947691 13.2     2.52     2.89    18.05    20.25
 destroy_t_2d                        62  8.0     4.60     6.30    18.11    19.70
 mp_sum_i                       4696234 15.9    15.42    19.24    15.42    19.24
 transform_dmat                   34816  8.0     0.40    17.52     0.40    17.52
 send_sizes_1                    146072 11.0     0.19     0.21    13.16    16.96
 setup_cells_3c                       1  7.0     0.46     0.46    15.69    15.69
 dbt_nd_mp_comm                  473839 11.7     1.87     2.44    13.88    15.31
 comm_data                        87451 11.0     0.40     2.26    10.76    15.28
 dbcsr_work_create              1146169 10.3     8.71    10.32    12.94    15.26
 build_3c_integral_block          13311  8.0    10.23    10.86    14.52    15.23
 soc                                  1  5.0     0.00     0.00    14.41    14.41
 H_KS_spinor_kp                       1  6.0     0.02     0.02    14.35    14.36
 dbcsr_iterator_start           4118157 10.9    12.24    12.78    13.54    14.24
 get_Minv_Vtr_Minv_R                  1  8.0     0.09     0.09    13.98    14.02
 mp_isend_im2                   ******* 12.9     0.68    13.35     0.68    13.35
 build_2c_integrals                  34 10.0     0.22     9.08     0.41    13.11
 dbcsr_work_destroy_all         1146169 11.2     7.11     8.80    10.30    12.60
 dbt_tas_reshape_alltoall       5747172 16.5     6.75     7.58    11.50    12.59
 mp_waitall_2                    174902 12.0     9.99    12.40     9.99    12.40
 dbt_tas_merge_communicate_buff 1869864 16.1     2.70     3.50     8.85    12.15
 mp_max_i                       ******* 11.6     9.79    11.62     9.79    11.62
 copy_fm_to_dbcsr_bc             215903 10.4     3.17     3.42    10.07    10.77
 alloc_block_3c                       1  9.0     0.33     0.34    10.46    10.71
 dbcsr_create_new               1611085  9.9     8.21     8.85     9.81    10.68
 dbt_copy_matrix_to_tensor       146072 10.0     3.91     4.35     9.24    10.10
 dbt_distribution_destroy        947688 12.2     6.58     7.92     8.11     9.63
 send_sizes_2                    146072 11.0     0.19     0.22     7.25     8.70
 mp_cart_rank                   6907564 15.9     6.71     8.61     6.71     8.61
 fill_buffer                      87451 11.0     2.95     8.17     3.19     8.42
 dbcsr_data_release             ******* 11.9     7.03     8.35     7.03     8.35
 dbcsr_iterator_stop            4118157 10.9     6.95     7.24     8.00     8.31
 mp_bcast_i                     ******* 18.0     7.25     8.13     7.25     8.13
 mp_sum_dv                        78733  8.9     4.58     8.08     4.58     8.08
 reserve_blocks                  146072 11.0     0.77     0.85     7.23     7.67
 dbcsr_data_new                 ******* 11.4     6.47     7.51     6.47     7.51
 mp_bcast_iv                     835715  8.3     6.88     7.48     6.88     7.48
 dbt_buffer_get_index           ******* 16.8     5.91     7.22     5.91     7.22
 dbt_tas_replicate_alltoall     3453554 15.9     3.88     4.45     6.23     7.10
 mp_dims_create                 ******* 14.4     5.98     6.80     5.98     6.80
 qs_ks_update_qs_env                 68  5.0     0.00     0.00     6.42     6.50
 copy_dbcsr_to_fm_bc             274649  9.0     2.66     2.85     5.87     6.20
 qs_ks_build_kohn_sham_matrix        71  7.0     0.03     0.03     5.82     5.91
 dbcsr_destroy                  1495376  9.6     2.79     2.90     5.32     5.72
 rebuild_ks_matrix                   68  6.0     0.00     0.00     5.57     5.66
 dbt_tas_merge_alltoall         1869864 16.1     2.67     3.47     4.40     5.60
 trafo_V_xc_R_to_kp                   1  7.0     0.01     0.01     5.43     5.53
 tree_to_linear_d                562798 12.6     4.55     5.44     4.55     5.44
 comm_size                        87451 11.0     0.14     0.16     4.91     5.11
 dbcsr_reserve_blocks            586809 12.2     2.59     4.39     3.07     5.07
 transfer_pw2rs                     356 10.6     0.00     0.00     4.86     5.01
 transfer_pw2rs_250                 143 11.0     0.23     0.29     4.63     4.79
 sum_up_and_integrate                71  8.0     0.00     0.00     0.73     4.74
 integrate_v_rspace                  71  9.0     0.00     0.04     0.73     4.74
 integrate_vhg0_rspace               71  8.0     0.00     0.00     4.31     4.46
 transfer_rs2pw                     349  8.4     0.00     0.00     4.18     4.26
 dbcsr_set                      1548877 10.5     1.51     1.63     3.28     4.21
 qs_rho_update_rho_low               69  5.0     0.00     0.00     4.20     4.21
 calculate_rho_elec                  69  6.0     0.00     0.01     4.19     4.20
 dbt_reserve_blocks_matrix_to_t  146072 11.0     1.22     1.36     3.76     4.17
 abc_contract_xsmm                38246  9.0     3.90     4.11     3.90     4.11
 transfer_rs2pw_250                 142 10.0     0.28     0.31     3.95     4.07
 grid_integrate_task_list            71 10.0     0.07     4.04     0.07     4.04
 density_rs2pw                       69  7.0     0.00     0.00     3.90     3.99
 mp_sendrecv_dv                   44323 10.4     3.83     3.92     3.83     3.92
 add_to_DOS_PDOS                   4688  6.5     3.72     3.76     3.72     3.76
 -------------------------------------------------------------------------------

 The number of warnings for this run is : 2
 
 -------------------------------------------------------------------------------
  **** **** ******  **  PROGRAM ENDED AT                 2025-03-16 06:04:21.582
 ***** ** ***  *** **   PROGRAM RAN ON                              f01r01c03s01
 **    ****   ******    PROGRAM RAN BY                                   di38fab
 ***** **    ** ** **   PROGRAM PROCESS ID                               2627005
  **** **  *******  **  PROGRAM STOPPED IN /hppfs/scratch/04/di38fab/04_TMD/4_WS
                                           e2_/DZVPnonaug/1e-3
