 DBCSR| CPU Multiplication driver                                           BLAS (U)
 DBCSR| Multrec recursion limit                                              512 (U)
 DBCSR| Multiplication stack size                                           1000 (D)
 DBCSR| Maximum elements for images                                    UNLIMITED (U)
 DBCSR| Multiplicative factor virtual images                                   1 (U)
 DBCSR| Use multiplication densification                                       T (D)
 DBCSR| Multiplication size stacks                                             3 (U)
 DBCSR| Use memory pool for CPU allocation                                     F (U)
 DBCSR| Number of 3D layers                                               SINGLE (U)
 DBCSR| Use MPI memory allocation                                              F (U)
 DBCSR| Use RMA algorithm                                                      F (U)
 DBCSR| Use Communication thread                                               T (U)
 DBCSR| Communication thread load                                             45 (D)
 DBCSR| MPI: My process id                                                     0
 DBCSR| MPI: Number of processes                                             128
 DBCSR| OMP: Current number of threads                                        12
 DBCSR| OMP: Max number of threads                                            12
 DBCSR| Split modifier for TAS multiplication algorithm                  1.0E+00 (U)


  **** **** ******  **  PROGRAM STARTED AT               2025-03-14 15:30:27.160
 ***** ** ***  *** **   PROGRAM STARTED ON                          f01r01c03s01
 **    ****   ******    PROGRAM STARTED BY                               di38fab
 ***** **    ** ** **   PROGRAM PROCESS ID                               2308231
  **** **  *******  **  PROGRAM STARTED IN /hppfs/scratch/04/di38fab/04_TMD/2_Mo
                                           Se2/DZVPnonaug

 CP2K| version string:                 CP2K version 2025.1 (Development Version)
 CP2K| source code revision number:                                  git:d2e611a
 CP2K| cp2kflags: omp libint fftw3 libxc parallel scalapack max_contr=4         
 CP2K| is freely available from                            https://www.cp2k.org/
 CP2K| Program compiled at                       Thu 06 Mar 2025 05:09:20 PM CET
 CP2K| Program compiled on                                               login02
 CP2K| Program compiled for                                        Supermuc-foss
 CP2K| Data directory path                  /hppfs/work/pn36zo/di38fab/cp2k/data
 CP2K| Input file name                                                    GW.inp

 GLOBAL| Force Environment number                                              1
 GLOBAL| Basis set file name                                        BASIS_MOLOPT
 GLOBAL| Potential file name            /hppfs/work/pn36zo/di38fab/cp2k/data/GTH
 GLOBAL| MM Potential file name                                     MM_POTENTIAL
 GLOBAL| Coordinate file name                                      __STD_INPUT__
 GLOBAL| Method name                                                        CP2K
 GLOBAL| Project name                                                      MoSe2
 GLOBAL| Run type                                                         ENERGY
 GLOBAL| FFT library                                                       FFTW3
 GLOBAL| Diagonalization library                                       ScaLAPACK
 GLOBAL| DGEMM library                                                      BLAS
 GLOBAL| Orthonormality check for eigenvectors                          DISABLED
 GLOBAL| Matrix multiplication library                                 ScaLAPACK
 GLOBAL| All-to-all communication in single precision                          F
 GLOBAL| FFTs using library dependent lengths                                  F
 GLOBAL| Grid backend                                                       AUTO
 GLOBAL| Global print level                                               MEDIUM
 GLOBAL| MPI I/O enabled                                                       T
 GLOBAL| Total number of message passing processes                           128
 GLOBAL| Number of threads for this process                                   12
 GLOBAL| This output is from process                                           0
 GLOBAL| OpenMP stack size per thread (OMP_STACKSIZE)                    default
 GLOBAL| CPU model name             Intel(R) Xeon(R) Platinum 8174 CPU @ 3.10GHz

 MEMORY| system memory details [Kb]
 MEMORY|                        rank 0           min           max       average
 MEMORY| MemTotal            792068892     792068880     792068924     792068890
 MEMORY| MemFree             778502476     778485452     779884292     778868449
 MEMORY| Buffers                     0             0             0             0
 MEMORY| Cached                2332748       2297560       2501436       2321090
 MEMORY| Slab                  1216288        945428       1221976       1180119
 MEMORY| SReclaimable           268380        208728        269436        260346
 MEMORY| MemLikelyFree       781103604     781103604     782414124     781449886


 *** Fundamental physical constants (SI units) ***

 *** Literature: B. J. Mohr and B. N. Taylor,
 ***             CODATA recommended values of the fundamental physical
 ***             constants: 2006, Web Version 5.1
 ***             http://physics.nist.gov/constants

 Speed of light in vacuum [m/s]                             2.99792458000000E+08
 Magnetic constant or permeability of vacuum [N/A**2]       1.25663706143592E-06
 Electric constant or permittivity of vacuum [F/m]          8.85418781762039E-12
 Planck constant (h) [J*s]                                  6.62606896000000E-34
 Planck constant (h-bar) [J*s]                              1.05457162825177E-34
 Elementary charge [C]                                      1.60217648700000E-19
 Electron mass [kg]                                         9.10938215000000E-31
 Electron g factor [ ]                                     -2.00231930436220E+00
 Proton mass [kg]                                           1.67262163700000E-27
 Fine-structure constant                                    7.29735253760000E-03
 Rydberg constant [1/m]                                     1.09737315685270E+07
 Avogadro constant [1/mol]                                  6.02214179000000E+23
 Boltzmann constant [J/K]                                   1.38065040000000E-23
 Atomic mass unit [kg]                                      1.66053878200000E-27
 Bohr radius [m]                                            5.29177208590000E-11

 *** Conversion factors ***

 [u] -> [a.u.]                                              1.82288848426455E+03
 [Angstrom] -> [Bohr] = [a.u.]                              1.88972613288564E+00
 [a.u.] = [Bohr] -> [Angstrom]                              5.29177208590000E-01
 [a.u.] -> [s]                                              2.41888432650478E-17
 [a.u.] -> [fs]                                             2.41888432650478E-02
 [a.u.] -> [J]                                              4.35974393937059E-18
 [a.u.] -> [N]                                              8.23872205491840E-08
 [a.u.] -> [K]                                              3.15774647902944E+05
 [a.u.] -> [kJ/mol]                                         2.62549961709828E+03
 [a.u.] -> [kcal/mol]                                       6.27509468713739E+02
 [a.u.] -> [Pa]                                             2.94210107994716E+13
 [a.u.] -> [bar]                                            2.94210107994716E+08
 [a.u.] -> [atm]                                            2.90362800883016E+08
 [a.u.] -> [eV]                                             2.72113838565563E+01
 [a.u.] -> [Hz]                                             6.57968392072181E+15
 [a.u.] -> [1/cm] (wave numbers)                            2.19474631370540E+05
 [a.u./Bohr**2] -> [1/cm]                                   5.14048714338585E+03
 

 CELL_TOP| Volume [angstrom^3]:                                       143.175000
 CELL_TOP| Vector a [angstrom     3.320     0.000     0.000   |a| =     3.320000
 CELL_TOP| Vector b [angstrom    -1.660     2.875     0.000   |b| =     3.319823
 CELL_TOP| Vector c [angstrom     0.000     0.000    15.000   |c| =    15.000000
 CELL_TOP| Angle (b,c), alpha [degree]:                                90.000000
 CELL_TOP| Angle (a,c), beta  [degree]:                                90.000000
 CELL_TOP| Angle (a,b), gamma [degree]:                               120.001763
 CELL_TOP| Numerically orthorhombic:                                          NO
 CELL_TOP| Periodicity                                                        XY

 GENERATE|  Preliminary Number of Bonds generated:                             0
 GENERATE|  Achieved consistency in connectivity generation.

 CELL| Volume [angstrom^3]:                                           143.175000
 CELL| Vector a [angstrom]:       3.320     0.000     0.000   |a| =     3.320000
 CELL| Vector b [angstrom]:      -1.660     2.875     0.000   |b| =     3.319823
 CELL| Vector c [angstrom]:       0.000     0.000    15.000   |c| =    15.000000
 CELL| Angle (b,c), alpha [degree]:                                    90.000000
 CELL| Angle (a,c), beta  [degree]:                                    90.000000
 CELL| Angle (a,b), gamma [degree]:                                   120.001763
 CELL| Numerically orthorhombic:                                              NO
 CELL| Periodicity                                                            XY

 CELL_REF| Volume [angstrom^3]:                                       143.175000
 CELL_REF| Vector a [angstrom     3.320     0.000     0.000   |a| =     3.320000
 CELL_REF| Vector b [angstrom    -1.660     2.875     0.000   |b| =     3.319823
 CELL_REF| Vector c [angstrom     0.000     0.000    15.000   |c| =    15.000000
 CELL_REF| Angle (b,c), alpha [degree]:                                90.000000
 CELL_REF| Angle (a,c), beta  [degree]:                                90.000000
 CELL_REF| Angle (a,b), gamma [degree]:                               120.001763
 CELL_REF| Numerically orthorhombic:                                          NO
 CELL_REF| Periodicity                                                        XY

 *** WARNING in cryssym.F:180 :: Symmetry library SPGLIB not available ***


 *******************************************************************************
                                    Kpoints
 *******************************************************************************
 BRILLOUIN| K-point scheme                                        Monkhorst-Pack
 BRILLOUIN| K-Point grid                                            32   32    1
 BRILLOUIN| Accuracy in Symmetry determination                      0.100000E-05
 BRILLOUIN| K-Point point group symmetrization                               OFF
 BRILLOUIN| Wavefunction type                                            COMPLEX
 BRILLOUIN| List of Kpoints [2 Pi/Bohr]                                      512
 BRILLOUIN| Number           Weight            X              Y              Z
 BRILLOUIN|     1           0.00195       -0.48438       -0.48438        0.00000
 BRILLOUIN|     2           0.00195       -0.48438       -0.45312        0.00000
 BRILLOUIN|     3           0.00195       -0.48438       -0.42188        0.00000
 BRILLOUIN|     4           0.00195       -0.48438       -0.39062        0.00000
 BRILLOUIN|     5           0.00195       -0.48438       -0.35938        0.00000
 BRILLOUIN|     6           0.00195       -0.48438       -0.32812        0.00000
 BRILLOUIN|     7           0.00195       -0.48438       -0.29688        0.00000
 BRILLOUIN|     8           0.00195       -0.48438       -0.26562        0.00000
 BRILLOUIN|     9           0.00195       -0.48438       -0.23438        0.00000
 BRILLOUIN|    10           0.00195       -0.48438       -0.20312        0.00000
 BRILLOUIN|    11           0.00195       -0.48438       -0.17188        0.00000
 BRILLOUIN|    12           0.00195       -0.48438       -0.14062        0.00000
 BRILLOUIN|    13           0.00195       -0.48438       -0.10938        0.00000
 BRILLOUIN|    14           0.00195       -0.48438       -0.07812        0.00000
 BRILLOUIN|    15           0.00195       -0.48438       -0.04688        0.00000
 BRILLOUIN|    16           0.00195       -0.48438       -0.01562        0.00000
 BRILLOUIN|    17           0.00195       -0.48438        0.01562        0.00000
 BRILLOUIN|    18           0.00195       -0.48438        0.04688        0.00000
 BRILLOUIN|    19           0.00195       -0.48438        0.07812        0.00000
 BRILLOUIN|    20           0.00195       -0.48438        0.10938        0.00000
 BRILLOUIN|    21           0.00195       -0.48438        0.14062        0.00000
 BRILLOUIN|    22           0.00195       -0.48438        0.17188        0.00000
 BRILLOUIN|    23           0.00195       -0.48438        0.20312        0.00000
 BRILLOUIN|    24           0.00195       -0.48438        0.23438        0.00000
 BRILLOUIN|    25           0.00195       -0.48438        0.26562        0.00000
 BRILLOUIN|    26           0.00195       -0.48438        0.29688        0.00000
 BRILLOUIN|    27           0.00195       -0.48438        0.32812        0.00000
 BRILLOUIN|    28           0.00195       -0.48438        0.35938        0.00000
 BRILLOUIN|    29           0.00195       -0.48438        0.39062        0.00000
 BRILLOUIN|    30           0.00195       -0.48438        0.42188        0.00000
 BRILLOUIN|    31           0.00195       -0.48438        0.45312        0.00000
 BRILLOUIN|    32           0.00195       -0.48438        0.48438        0.00000
 BRILLOUIN|    33           0.00195       -0.45312       -0.48438        0.00000
 BRILLOUIN|    34           0.00195       -0.45312       -0.45312        0.00000
 BRILLOUIN|    35           0.00195       -0.45312       -0.42188        0.00000
 BRILLOUIN|    36           0.00195       -0.45312       -0.39062        0.00000
 BRILLOUIN|    37           0.00195       -0.45312       -0.35938        0.00000
 BRILLOUIN|    38           0.00195       -0.45312       -0.32812        0.00000
 BRILLOUIN|    39           0.00195       -0.45312       -0.29688        0.00000
 BRILLOUIN|    40           0.00195       -0.45312       -0.26562        0.00000
 BRILLOUIN|    41           0.00195       -0.45312       -0.23438        0.00000
 BRILLOUIN|    42           0.00195       -0.45312       -0.20312        0.00000
 BRILLOUIN|    43           0.00195       -0.45312       -0.17188        0.00000
 BRILLOUIN|    44           0.00195       -0.45312       -0.14062        0.00000
 BRILLOUIN|    45           0.00195       -0.45312       -0.10938        0.00000
 BRILLOUIN|    46           0.00195       -0.45312       -0.07812        0.00000
 BRILLOUIN|    47           0.00195       -0.45312       -0.04688        0.00000
 BRILLOUIN|    48           0.00195       -0.45312       -0.01562        0.00000
 BRILLOUIN|    49           0.00195       -0.45312        0.01562        0.00000
 BRILLOUIN|    50           0.00195       -0.45312        0.04688        0.00000
 BRILLOUIN|    51           0.00195       -0.45312        0.07812        0.00000
 BRILLOUIN|    52           0.00195       -0.45312        0.10938        0.00000
 BRILLOUIN|    53           0.00195       -0.45312        0.14062        0.00000
 BRILLOUIN|    54           0.00195       -0.45312        0.17188        0.00000
 BRILLOUIN|    55           0.00195       -0.45312        0.20312        0.00000
 BRILLOUIN|    56           0.00195       -0.45312        0.23438        0.00000
 BRILLOUIN|    57           0.00195       -0.45312        0.26562        0.00000
 BRILLOUIN|    58           0.00195       -0.45312        0.29688        0.00000
 BRILLOUIN|    59           0.00195       -0.45312        0.32812        0.00000
 BRILLOUIN|    60           0.00195       -0.45312        0.35938        0.00000
 BRILLOUIN|    61           0.00195       -0.45312        0.39062        0.00000
 BRILLOUIN|    62           0.00195       -0.45312        0.42188        0.00000
 BRILLOUIN|    63           0.00195       -0.45312        0.45312        0.00000
 BRILLOUIN|    64           0.00195       -0.45312        0.48438        0.00000
 BRILLOUIN|    65           0.00195       -0.42188       -0.48438        0.00000
 BRILLOUIN|    66           0.00195       -0.42188       -0.45312        0.00000
 BRILLOUIN|    67           0.00195       -0.42188       -0.42188        0.00000
 BRILLOUIN|    68           0.00195       -0.42188       -0.39062        0.00000
 BRILLOUIN|    69           0.00195       -0.42188       -0.35938        0.00000
 BRILLOUIN|    70           0.00195       -0.42188       -0.32812        0.00000
 BRILLOUIN|    71           0.00195       -0.42188       -0.29688        0.00000
 BRILLOUIN|    72           0.00195       -0.42188       -0.26562        0.00000
 BRILLOUIN|    73           0.00195       -0.42188       -0.23438        0.00000
 BRILLOUIN|    74           0.00195       -0.42188       -0.20312        0.00000
 BRILLOUIN|    75           0.00195       -0.42188       -0.17188        0.00000
 BRILLOUIN|    76           0.00195       -0.42188       -0.14062        0.00000
 BRILLOUIN|    77           0.00195       -0.42188       -0.10938        0.00000
 BRILLOUIN|    78           0.00195       -0.42188       -0.07812        0.00000
 BRILLOUIN|    79           0.00195       -0.42188       -0.04688        0.00000
 BRILLOUIN|    80           0.00195       -0.42188       -0.01562        0.00000
 BRILLOUIN|    81           0.00195       -0.42188        0.01562        0.00000
 BRILLOUIN|    82           0.00195       -0.42188        0.04688        0.00000
 BRILLOUIN|    83           0.00195       -0.42188        0.07812        0.00000
 BRILLOUIN|    84           0.00195       -0.42188        0.10938        0.00000
 BRILLOUIN|    85           0.00195       -0.42188        0.14062        0.00000
 BRILLOUIN|    86           0.00195       -0.42188        0.17188        0.00000
 BRILLOUIN|    87           0.00195       -0.42188        0.20312        0.00000
 BRILLOUIN|    88           0.00195       -0.42188        0.23438        0.00000
 BRILLOUIN|    89           0.00195       -0.42188        0.26562        0.00000
 BRILLOUIN|    90           0.00195       -0.42188        0.29688        0.00000
 BRILLOUIN|    91           0.00195       -0.42188        0.32812        0.00000
 BRILLOUIN|    92           0.00195       -0.42188        0.35938        0.00000
 BRILLOUIN|    93           0.00195       -0.42188        0.39062        0.00000
 BRILLOUIN|    94           0.00195       -0.42188        0.42188        0.00000
 BRILLOUIN|    95           0.00195       -0.42188        0.45312        0.00000
 BRILLOUIN|    96           0.00195       -0.42188        0.48438        0.00000
 BRILLOUIN|    97           0.00195       -0.39062       -0.48438        0.00000
 BRILLOUIN|    98           0.00195       -0.39062       -0.45312        0.00000
 BRILLOUIN|    99           0.00195       -0.39062       -0.42188        0.00000
 BRILLOUIN|   100           0.00195       -0.39062       -0.39062        0.00000
 BRILLOUIN|   101           0.00195       -0.39062       -0.35938        0.00000
 BRILLOUIN|   102           0.00195       -0.39062       -0.32812        0.00000
 BRILLOUIN|   103           0.00195       -0.39062       -0.29688        0.00000
 BRILLOUIN|   104           0.00195       -0.39062       -0.26562        0.00000
 BRILLOUIN|   105           0.00195       -0.39062       -0.23438        0.00000
 BRILLOUIN|   106           0.00195       -0.39062       -0.20312        0.00000
 BRILLOUIN|   107           0.00195       -0.39062       -0.17188        0.00000
 BRILLOUIN|   108           0.00195       -0.39062       -0.14062        0.00000
 BRILLOUIN|   109           0.00195       -0.39062       -0.10938        0.00000
 BRILLOUIN|   110           0.00195       -0.39062       -0.07812        0.00000
 BRILLOUIN|   111           0.00195       -0.39062       -0.04688        0.00000
 BRILLOUIN|   112           0.00195       -0.39062       -0.01562        0.00000
 BRILLOUIN|   113           0.00195       -0.39062        0.01562        0.00000
 BRILLOUIN|   114           0.00195       -0.39062        0.04688        0.00000
 BRILLOUIN|   115           0.00195       -0.39062        0.07812        0.00000
 BRILLOUIN|   116           0.00195       -0.39062        0.10938        0.00000
 BRILLOUIN|   117           0.00195       -0.39062        0.14062        0.00000
 BRILLOUIN|   118           0.00195       -0.39062        0.17188        0.00000
 BRILLOUIN|   119           0.00195       -0.39062        0.20312        0.00000
 BRILLOUIN|   120           0.00195       -0.39062        0.23438        0.00000
 BRILLOUIN|   121           0.00195       -0.39062        0.26562        0.00000
 BRILLOUIN|   122           0.00195       -0.39062        0.29688        0.00000
 BRILLOUIN|   123           0.00195       -0.39062        0.32812        0.00000
 BRILLOUIN|   124           0.00195       -0.39062        0.35938        0.00000
 BRILLOUIN|   125           0.00195       -0.39062        0.39062        0.00000
 BRILLOUIN|   126           0.00195       -0.39062        0.42188        0.00000
 BRILLOUIN|   127           0.00195       -0.39062        0.45312        0.00000
 BRILLOUIN|   128           0.00195       -0.39062        0.48438        0.00000
 BRILLOUIN|   129           0.00195       -0.35938       -0.48438        0.00000
 BRILLOUIN|   130           0.00195       -0.35938       -0.45312        0.00000
 BRILLOUIN|   131           0.00195       -0.35938       -0.42188        0.00000
 BRILLOUIN|   132           0.00195       -0.35938       -0.39062        0.00000
 BRILLOUIN|   133           0.00195       -0.35938       -0.35938        0.00000
 BRILLOUIN|   134           0.00195       -0.35938       -0.32812        0.00000
 BRILLOUIN|   135           0.00195       -0.35938       -0.29688        0.00000
 BRILLOUIN|   136           0.00195       -0.35938       -0.26562        0.00000
 BRILLOUIN|   137           0.00195       -0.35938       -0.23438        0.00000
 BRILLOUIN|   138           0.00195       -0.35938       -0.20312        0.00000
 BRILLOUIN|   139           0.00195       -0.35938       -0.17188        0.00000
 BRILLOUIN|   140           0.00195       -0.35938       -0.14062        0.00000
 BRILLOUIN|   141           0.00195       -0.35938       -0.10938        0.00000
 BRILLOUIN|   142           0.00195       -0.35938       -0.07812        0.00000
 BRILLOUIN|   143           0.00195       -0.35938       -0.04688        0.00000
 BRILLOUIN|   144           0.00195       -0.35938       -0.01562        0.00000
 BRILLOUIN|   145           0.00195       -0.35938        0.01562        0.00000
 BRILLOUIN|   146           0.00195       -0.35938        0.04688        0.00000
 BRILLOUIN|   147           0.00195       -0.35938        0.07812        0.00000
 BRILLOUIN|   148           0.00195       -0.35938        0.10938        0.00000
 BRILLOUIN|   149           0.00195       -0.35938        0.14062        0.00000
 BRILLOUIN|   150           0.00195       -0.35938        0.17188        0.00000
 BRILLOUIN|   151           0.00195       -0.35938        0.20312        0.00000
 BRILLOUIN|   152           0.00195       -0.35938        0.23438        0.00000
 BRILLOUIN|   153           0.00195       -0.35938        0.26562        0.00000
 BRILLOUIN|   154           0.00195       -0.35938        0.29688        0.00000
 BRILLOUIN|   155           0.00195       -0.35938        0.32812        0.00000
 BRILLOUIN|   156           0.00195       -0.35938        0.35938        0.00000
 BRILLOUIN|   157           0.00195       -0.35938        0.39062        0.00000
 BRILLOUIN|   158           0.00195       -0.35938        0.42188        0.00000
 BRILLOUIN|   159           0.00195       -0.35938        0.45312        0.00000
 BRILLOUIN|   160           0.00195       -0.35938        0.48438        0.00000
 BRILLOUIN|   161           0.00195       -0.32812       -0.48438        0.00000
 BRILLOUIN|   162           0.00195       -0.32812       -0.45312        0.00000
 BRILLOUIN|   163           0.00195       -0.32812       -0.42188        0.00000
 BRILLOUIN|   164           0.00195       -0.32812       -0.39062        0.00000
 BRILLOUIN|   165           0.00195       -0.32812       -0.35938        0.00000
 BRILLOUIN|   166           0.00195       -0.32812       -0.32812        0.00000
 BRILLOUIN|   167           0.00195       -0.32812       -0.29688        0.00000
 BRILLOUIN|   168           0.00195       -0.32812       -0.26562        0.00000
 BRILLOUIN|   169           0.00195       -0.32812       -0.23438        0.00000
 BRILLOUIN|   170           0.00195       -0.32812       -0.20312        0.00000
 BRILLOUIN|   171           0.00195       -0.32812       -0.17188        0.00000
 BRILLOUIN|   172           0.00195       -0.32812       -0.14062        0.00000
 BRILLOUIN|   173           0.00195       -0.32812       -0.10938        0.00000
 BRILLOUIN|   174           0.00195       -0.32812       -0.07812        0.00000
 BRILLOUIN|   175           0.00195       -0.32812       -0.04688        0.00000
 BRILLOUIN|   176           0.00195       -0.32812       -0.01562        0.00000
 BRILLOUIN|   177           0.00195       -0.32812        0.01562        0.00000
 BRILLOUIN|   178           0.00195       -0.32812        0.04688        0.00000
 BRILLOUIN|   179           0.00195       -0.32812        0.07812        0.00000
 BRILLOUIN|   180           0.00195       -0.32812        0.10938        0.00000
 BRILLOUIN|   181           0.00195       -0.32812        0.14062        0.00000
 BRILLOUIN|   182           0.00195       -0.32812        0.17188        0.00000
 BRILLOUIN|   183           0.00195       -0.32812        0.20312        0.00000
 BRILLOUIN|   184           0.00195       -0.32812        0.23438        0.00000
 BRILLOUIN|   185           0.00195       -0.32812        0.26562        0.00000
 BRILLOUIN|   186           0.00195       -0.32812        0.29688        0.00000
 BRILLOUIN|   187           0.00195       -0.32812        0.32812        0.00000
 BRILLOUIN|   188           0.00195       -0.32812        0.35938        0.00000
 BRILLOUIN|   189           0.00195       -0.32812        0.39062        0.00000
 BRILLOUIN|   190           0.00195       -0.32812        0.42188        0.00000
 BRILLOUIN|   191           0.00195       -0.32812        0.45312        0.00000
 BRILLOUIN|   192           0.00195       -0.32812        0.48438        0.00000
 BRILLOUIN|   193           0.00195       -0.29688       -0.48438        0.00000
 BRILLOUIN|   194           0.00195       -0.29688       -0.45312        0.00000
 BRILLOUIN|   195           0.00195       -0.29688       -0.42188        0.00000
 BRILLOUIN|   196           0.00195       -0.29688       -0.39062        0.00000
 BRILLOUIN|   197           0.00195       -0.29688       -0.35938        0.00000
 BRILLOUIN|   198           0.00195       -0.29688       -0.32812        0.00000
 BRILLOUIN|   199           0.00195       -0.29688       -0.29688        0.00000
 BRILLOUIN|   200           0.00195       -0.29688       -0.26562        0.00000
 BRILLOUIN|   201           0.00195       -0.29688       -0.23438        0.00000
 BRILLOUIN|   202           0.00195       -0.29688       -0.20312        0.00000
 BRILLOUIN|   203           0.00195       -0.29688       -0.17188        0.00000
 BRILLOUIN|   204           0.00195       -0.29688       -0.14062        0.00000
 BRILLOUIN|   205           0.00195       -0.29688       -0.10938        0.00000
 BRILLOUIN|   206           0.00195       -0.29688       -0.07812        0.00000
 BRILLOUIN|   207           0.00195       -0.29688       -0.04688        0.00000
 BRILLOUIN|   208           0.00195       -0.29688       -0.01562        0.00000
 BRILLOUIN|   209           0.00195       -0.29688        0.01562        0.00000
 BRILLOUIN|   210           0.00195       -0.29688        0.04688        0.00000
 BRILLOUIN|   211           0.00195       -0.29688        0.07812        0.00000
 BRILLOUIN|   212           0.00195       -0.29688        0.10938        0.00000
 BRILLOUIN|   213           0.00195       -0.29688        0.14062        0.00000
 BRILLOUIN|   214           0.00195       -0.29688        0.17188        0.00000
 BRILLOUIN|   215           0.00195       -0.29688        0.20312        0.00000
 BRILLOUIN|   216           0.00195       -0.29688        0.23438        0.00000
 BRILLOUIN|   217           0.00195       -0.29688        0.26562        0.00000
 BRILLOUIN|   218           0.00195       -0.29688        0.29688        0.00000
 BRILLOUIN|   219           0.00195       -0.29688        0.32812        0.00000
 BRILLOUIN|   220           0.00195       -0.29688        0.35938        0.00000
 BRILLOUIN|   221           0.00195       -0.29688        0.39062        0.00000
 BRILLOUIN|   222           0.00195       -0.29688        0.42188        0.00000
 BRILLOUIN|   223           0.00195       -0.29688        0.45312        0.00000
 BRILLOUIN|   224           0.00195       -0.29688        0.48438        0.00000
 BRILLOUIN|   225           0.00195       -0.26562       -0.48438        0.00000
 BRILLOUIN|   226           0.00195       -0.26562       -0.45312        0.00000
 BRILLOUIN|   227           0.00195       -0.26562       -0.42188        0.00000
 BRILLOUIN|   228           0.00195       -0.26562       -0.39062        0.00000
 BRILLOUIN|   229           0.00195       -0.26562       -0.35938        0.00000
 BRILLOUIN|   230           0.00195       -0.26562       -0.32812        0.00000
 BRILLOUIN|   231           0.00195       -0.26562       -0.29688        0.00000
 BRILLOUIN|   232           0.00195       -0.26562       -0.26562        0.00000
 BRILLOUIN|   233           0.00195       -0.26562       -0.23438        0.00000
 BRILLOUIN|   234           0.00195       -0.26562       -0.20312        0.00000
 BRILLOUIN|   235           0.00195       -0.26562       -0.17188        0.00000
 BRILLOUIN|   236           0.00195       -0.26562       -0.14062        0.00000
 BRILLOUIN|   237           0.00195       -0.26562       -0.10938        0.00000
 BRILLOUIN|   238           0.00195       -0.26562       -0.07812        0.00000
 BRILLOUIN|   239           0.00195       -0.26562       -0.04688        0.00000
 BRILLOUIN|   240           0.00195       -0.26562       -0.01562        0.00000
 BRILLOUIN|   241           0.00195       -0.26562        0.01562        0.00000
 BRILLOUIN|   242           0.00195       -0.26562        0.04688        0.00000
 BRILLOUIN|   243           0.00195       -0.26562        0.07812        0.00000
 BRILLOUIN|   244           0.00195       -0.26562        0.10938        0.00000
 BRILLOUIN|   245           0.00195       -0.26562        0.14062        0.00000
 BRILLOUIN|   246           0.00195       -0.26562        0.17188        0.00000
 BRILLOUIN|   247           0.00195       -0.26562        0.20312        0.00000
 BRILLOUIN|   248           0.00195       -0.26562        0.23438        0.00000
 BRILLOUIN|   249           0.00195       -0.26562        0.26562        0.00000
 BRILLOUIN|   250           0.00195       -0.26562        0.29688        0.00000
 BRILLOUIN|   251           0.00195       -0.26562        0.32812        0.00000
 BRILLOUIN|   252           0.00195       -0.26562        0.35938        0.00000
 BRILLOUIN|   253           0.00195       -0.26562        0.39062        0.00000
 BRILLOUIN|   254           0.00195       -0.26562        0.42188        0.00000
 BRILLOUIN|   255           0.00195       -0.26562        0.45312        0.00000
 BRILLOUIN|   256           0.00195       -0.26562        0.48438        0.00000
 BRILLOUIN|   257           0.00195       -0.23438       -0.48438        0.00000
 BRILLOUIN|   258           0.00195       -0.23438       -0.45312        0.00000
 BRILLOUIN|   259           0.00195       -0.23438       -0.42188        0.00000
 BRILLOUIN|   260           0.00195       -0.23438       -0.39062        0.00000
 BRILLOUIN|   261           0.00195       -0.23438       -0.35938        0.00000
 BRILLOUIN|   262           0.00195       -0.23438       -0.32812        0.00000
 BRILLOUIN|   263           0.00195       -0.23438       -0.29688        0.00000
 BRILLOUIN|   264           0.00195       -0.23438       -0.26562        0.00000
 BRILLOUIN|   265           0.00195       -0.23438       -0.23438        0.00000
 BRILLOUIN|   266           0.00195       -0.23438       -0.20312        0.00000
 BRILLOUIN|   267           0.00195       -0.23438       -0.17188        0.00000
 BRILLOUIN|   268           0.00195       -0.23438       -0.14062        0.00000
 BRILLOUIN|   269           0.00195       -0.23438       -0.10938        0.00000
 BRILLOUIN|   270           0.00195       -0.23438       -0.07812        0.00000
 BRILLOUIN|   271           0.00195       -0.23438       -0.04688        0.00000
 BRILLOUIN|   272           0.00195       -0.23438       -0.01562        0.00000
 BRILLOUIN|   273           0.00195       -0.23438        0.01562        0.00000
 BRILLOUIN|   274           0.00195       -0.23438        0.04688        0.00000
 BRILLOUIN|   275           0.00195       -0.23438        0.07812        0.00000
 BRILLOUIN|   276           0.00195       -0.23438        0.10938        0.00000
 BRILLOUIN|   277           0.00195       -0.23438        0.14062        0.00000
 BRILLOUIN|   278           0.00195       -0.23438        0.17188        0.00000
 BRILLOUIN|   279           0.00195       -0.23438        0.20312        0.00000
 BRILLOUIN|   280           0.00195       -0.23438        0.23438        0.00000
 BRILLOUIN|   281           0.00195       -0.23438        0.26562        0.00000
 BRILLOUIN|   282           0.00195       -0.23438        0.29688        0.00000
 BRILLOUIN|   283           0.00195       -0.23438        0.32812        0.00000
 BRILLOUIN|   284           0.00195       -0.23438        0.35938        0.00000
 BRILLOUIN|   285           0.00195       -0.23438        0.39062        0.00000
 BRILLOUIN|   286           0.00195       -0.23438        0.42188        0.00000
 BRILLOUIN|   287           0.00195       -0.23438        0.45312        0.00000
 BRILLOUIN|   288           0.00195       -0.23438        0.48438        0.00000
 BRILLOUIN|   289           0.00195       -0.20312       -0.48438        0.00000
 BRILLOUIN|   290           0.00195       -0.20312       -0.45312        0.00000
 BRILLOUIN|   291           0.00195       -0.20312       -0.42188        0.00000
 BRILLOUIN|   292           0.00195       -0.20312       -0.39062        0.00000
 BRILLOUIN|   293           0.00195       -0.20312       -0.35938        0.00000
 BRILLOUIN|   294           0.00195       -0.20312       -0.32812        0.00000
 BRILLOUIN|   295           0.00195       -0.20312       -0.29688        0.00000
 BRILLOUIN|   296           0.00195       -0.20312       -0.26562        0.00000
 BRILLOUIN|   297           0.00195       -0.20312       -0.23438        0.00000
 BRILLOUIN|   298           0.00195       -0.20312       -0.20312        0.00000
 BRILLOUIN|   299           0.00195       -0.20312       -0.17188        0.00000
 BRILLOUIN|   300           0.00195       -0.20312       -0.14062        0.00000
 BRILLOUIN|   301           0.00195       -0.20312       -0.10938        0.00000
 BRILLOUIN|   302           0.00195       -0.20312       -0.07812        0.00000
 BRILLOUIN|   303           0.00195       -0.20312       -0.04688        0.00000
 BRILLOUIN|   304           0.00195       -0.20312       -0.01562        0.00000
 BRILLOUIN|   305           0.00195       -0.20312        0.01562        0.00000
 BRILLOUIN|   306           0.00195       -0.20312        0.04688        0.00000
 BRILLOUIN|   307           0.00195       -0.20312        0.07812        0.00000
 BRILLOUIN|   308           0.00195       -0.20312        0.10938        0.00000
 BRILLOUIN|   309           0.00195       -0.20312        0.14062        0.00000
 BRILLOUIN|   310           0.00195       -0.20312        0.17188        0.00000
 BRILLOUIN|   311           0.00195       -0.20312        0.20312        0.00000
 BRILLOUIN|   312           0.00195       -0.20312        0.23438        0.00000
 BRILLOUIN|   313           0.00195       -0.20312        0.26562        0.00000
 BRILLOUIN|   314           0.00195       -0.20312        0.29688        0.00000
 BRILLOUIN|   315           0.00195       -0.20312        0.32812        0.00000
 BRILLOUIN|   316           0.00195       -0.20312        0.35938        0.00000
 BRILLOUIN|   317           0.00195       -0.20312        0.39062        0.00000
 BRILLOUIN|   318           0.00195       -0.20312        0.42188        0.00000
 BRILLOUIN|   319           0.00195       -0.20312        0.45312        0.00000
 BRILLOUIN|   320           0.00195       -0.20312        0.48438        0.00000
 BRILLOUIN|   321           0.00195       -0.17188       -0.48438        0.00000
 BRILLOUIN|   322           0.00195       -0.17188       -0.45312        0.00000
 BRILLOUIN|   323           0.00195       -0.17188       -0.42188        0.00000
 BRILLOUIN|   324           0.00195       -0.17188       -0.39062        0.00000
 BRILLOUIN|   325           0.00195       -0.17188       -0.35938        0.00000
 BRILLOUIN|   326           0.00195       -0.17188       -0.32812        0.00000
 BRILLOUIN|   327           0.00195       -0.17188       -0.29688        0.00000
 BRILLOUIN|   328           0.00195       -0.17188       -0.26562        0.00000
 BRILLOUIN|   329           0.00195       -0.17188       -0.23438        0.00000
 BRILLOUIN|   330           0.00195       -0.17188       -0.20312        0.00000
 BRILLOUIN|   331           0.00195       -0.17188       -0.17188        0.00000
 BRILLOUIN|   332           0.00195       -0.17188       -0.14062        0.00000
 BRILLOUIN|   333           0.00195       -0.17188       -0.10938        0.00000
 BRILLOUIN|   334           0.00195       -0.17188       -0.07812        0.00000
 BRILLOUIN|   335           0.00195       -0.17188       -0.04688        0.00000
 BRILLOUIN|   336           0.00195       -0.17188       -0.01562        0.00000
 BRILLOUIN|   337           0.00195       -0.17188        0.01562        0.00000
 BRILLOUIN|   338           0.00195       -0.17188        0.04688        0.00000
 BRILLOUIN|   339           0.00195       -0.17188        0.07812        0.00000
 BRILLOUIN|   340           0.00195       -0.17188        0.10938        0.00000
 BRILLOUIN|   341           0.00195       -0.17188        0.14062        0.00000
 BRILLOUIN|   342           0.00195       -0.17188        0.17188        0.00000
 BRILLOUIN|   343           0.00195       -0.17188        0.20312        0.00000
 BRILLOUIN|   344           0.00195       -0.17188        0.23438        0.00000
 BRILLOUIN|   345           0.00195       -0.17188        0.26562        0.00000
 BRILLOUIN|   346           0.00195       -0.17188        0.29688        0.00000
 BRILLOUIN|   347           0.00195       -0.17188        0.32812        0.00000
 BRILLOUIN|   348           0.00195       -0.17188        0.35938        0.00000
 BRILLOUIN|   349           0.00195       -0.17188        0.39062        0.00000
 BRILLOUIN|   350           0.00195       -0.17188        0.42188        0.00000
 BRILLOUIN|   351           0.00195       -0.17188        0.45312        0.00000
 BRILLOUIN|   352           0.00195       -0.17188        0.48438        0.00000
 BRILLOUIN|   353           0.00195       -0.14062       -0.48438        0.00000
 BRILLOUIN|   354           0.00195       -0.14062       -0.45312        0.00000
 BRILLOUIN|   355           0.00195       -0.14062       -0.42188        0.00000
 BRILLOUIN|   356           0.00195       -0.14062       -0.39062        0.00000
 BRILLOUIN|   357           0.00195       -0.14062       -0.35938        0.00000
 BRILLOUIN|   358           0.00195       -0.14062       -0.32812        0.00000
 BRILLOUIN|   359           0.00195       -0.14062       -0.29688        0.00000
 BRILLOUIN|   360           0.00195       -0.14062       -0.26562        0.00000
 BRILLOUIN|   361           0.00195       -0.14062       -0.23438        0.00000
 BRILLOUIN|   362           0.00195       -0.14062       -0.20312        0.00000
 BRILLOUIN|   363           0.00195       -0.14062       -0.17188        0.00000
 BRILLOUIN|   364           0.00195       -0.14062       -0.14062        0.00000
 BRILLOUIN|   365           0.00195       -0.14062       -0.10938        0.00000
 BRILLOUIN|   366           0.00195       -0.14062       -0.07812        0.00000
 BRILLOUIN|   367           0.00195       -0.14062       -0.04688        0.00000
 BRILLOUIN|   368           0.00195       -0.14062       -0.01562        0.00000
 BRILLOUIN|   369           0.00195       -0.14062        0.01562        0.00000
 BRILLOUIN|   370           0.00195       -0.14062        0.04688        0.00000
 BRILLOUIN|   371           0.00195       -0.14062        0.07812        0.00000
 BRILLOUIN|   372           0.00195       -0.14062        0.10938        0.00000
 BRILLOUIN|   373           0.00195       -0.14062        0.14062        0.00000
 BRILLOUIN|   374           0.00195       -0.14062        0.17188        0.00000
 BRILLOUIN|   375           0.00195       -0.14062        0.20312        0.00000
 BRILLOUIN|   376           0.00195       -0.14062        0.23438        0.00000
 BRILLOUIN|   377           0.00195       -0.14062        0.26562        0.00000
 BRILLOUIN|   378           0.00195       -0.14062        0.29688        0.00000
 BRILLOUIN|   379           0.00195       -0.14062        0.32812        0.00000
 BRILLOUIN|   380           0.00195       -0.14062        0.35938        0.00000
 BRILLOUIN|   381           0.00195       -0.14062        0.39062        0.00000
 BRILLOUIN|   382           0.00195       -0.14062        0.42188        0.00000
 BRILLOUIN|   383           0.00195       -0.14062        0.45312        0.00000
 BRILLOUIN|   384           0.00195       -0.14062        0.48438        0.00000
 BRILLOUIN|   385           0.00195       -0.10938       -0.48438        0.00000
 BRILLOUIN|   386           0.00195       -0.10938       -0.45312        0.00000
 BRILLOUIN|   387           0.00195       -0.10938       -0.42188        0.00000
 BRILLOUIN|   388           0.00195       -0.10938       -0.39062        0.00000
 BRILLOUIN|   389           0.00195       -0.10938       -0.35938        0.00000
 BRILLOUIN|   390           0.00195       -0.10938       -0.32812        0.00000
 BRILLOUIN|   391           0.00195       -0.10938       -0.29688        0.00000
 BRILLOUIN|   392           0.00195       -0.10938       -0.26562        0.00000
 BRILLOUIN|   393           0.00195       -0.10938       -0.23438        0.00000
 BRILLOUIN|   394           0.00195       -0.10938       -0.20312        0.00000
 BRILLOUIN|   395           0.00195       -0.10938       -0.17188        0.00000
 BRILLOUIN|   396           0.00195       -0.10938       -0.14062        0.00000
 BRILLOUIN|   397           0.00195       -0.10938       -0.10938        0.00000
 BRILLOUIN|   398           0.00195       -0.10938       -0.07812        0.00000
 BRILLOUIN|   399           0.00195       -0.10938       -0.04688        0.00000
 BRILLOUIN|   400           0.00195       -0.10938       -0.01562        0.00000
 BRILLOUIN|   401           0.00195       -0.10938        0.01562        0.00000
 BRILLOUIN|   402           0.00195       -0.10938        0.04688        0.00000
 BRILLOUIN|   403           0.00195       -0.10938        0.07812        0.00000
 BRILLOUIN|   404           0.00195       -0.10938        0.10938        0.00000
 BRILLOUIN|   405           0.00195       -0.10938        0.14062        0.00000
 BRILLOUIN|   406           0.00195       -0.10938        0.17188        0.00000
 BRILLOUIN|   407           0.00195       -0.10938        0.20312        0.00000
 BRILLOUIN|   408           0.00195       -0.10938        0.23438        0.00000
 BRILLOUIN|   409           0.00195       -0.10938        0.26562        0.00000
 BRILLOUIN|   410           0.00195       -0.10938        0.29688        0.00000
 BRILLOUIN|   411           0.00195       -0.10938        0.32812        0.00000
 BRILLOUIN|   412           0.00195       -0.10938        0.35938        0.00000
 BRILLOUIN|   413           0.00195       -0.10938        0.39062        0.00000
 BRILLOUIN|   414           0.00195       -0.10938        0.42188        0.00000
 BRILLOUIN|   415           0.00195       -0.10938        0.45312        0.00000
 BRILLOUIN|   416           0.00195       -0.10938        0.48438        0.00000
 BRILLOUIN|   417           0.00195       -0.07812       -0.48438        0.00000
 BRILLOUIN|   418           0.00195       -0.07812       -0.45312        0.00000
 BRILLOUIN|   419           0.00195       -0.07812       -0.42188        0.00000
 BRILLOUIN|   420           0.00195       -0.07812       -0.39062        0.00000
 BRILLOUIN|   421           0.00195       -0.07812       -0.35938        0.00000
 BRILLOUIN|   422           0.00195       -0.07812       -0.32812        0.00000
 BRILLOUIN|   423           0.00195       -0.07812       -0.29688        0.00000
 BRILLOUIN|   424           0.00195       -0.07812       -0.26562        0.00000
 BRILLOUIN|   425           0.00195       -0.07812       -0.23438        0.00000
 BRILLOUIN|   426           0.00195       -0.07812       -0.20312        0.00000
 BRILLOUIN|   427           0.00195       -0.07812       -0.17188        0.00000
 BRILLOUIN|   428           0.00195       -0.07812       -0.14062        0.00000
 BRILLOUIN|   429           0.00195       -0.07812       -0.10938        0.00000
 BRILLOUIN|   430           0.00195       -0.07812       -0.07812        0.00000
 BRILLOUIN|   431           0.00195       -0.07812       -0.04688        0.00000
 BRILLOUIN|   432           0.00195       -0.07812       -0.01562        0.00000
 BRILLOUIN|   433           0.00195       -0.07812        0.01562        0.00000
 BRILLOUIN|   434           0.00195       -0.07812        0.04688        0.00000
 BRILLOUIN|   435           0.00195       -0.07812        0.07812        0.00000
 BRILLOUIN|   436           0.00195       -0.07812        0.10938        0.00000
 BRILLOUIN|   437           0.00195       -0.07812        0.14062        0.00000
 BRILLOUIN|   438           0.00195       -0.07812        0.17188        0.00000
 BRILLOUIN|   439           0.00195       -0.07812        0.20312        0.00000
 BRILLOUIN|   440           0.00195       -0.07812        0.23438        0.00000
 BRILLOUIN|   441           0.00195       -0.07812        0.26562        0.00000
 BRILLOUIN|   442           0.00195       -0.07812        0.29688        0.00000
 BRILLOUIN|   443           0.00195       -0.07812        0.32812        0.00000
 BRILLOUIN|   444           0.00195       -0.07812        0.35938        0.00000
 BRILLOUIN|   445           0.00195       -0.07812        0.39062        0.00000
 BRILLOUIN|   446           0.00195       -0.07812        0.42188        0.00000
 BRILLOUIN|   447           0.00195       -0.07812        0.45312        0.00000
 BRILLOUIN|   448           0.00195       -0.07812        0.48438        0.00000
 BRILLOUIN|   449           0.00195       -0.04688       -0.48438        0.00000
 BRILLOUIN|   450           0.00195       -0.04688       -0.45312        0.00000
 BRILLOUIN|   451           0.00195       -0.04688       -0.42188        0.00000
 BRILLOUIN|   452           0.00195       -0.04688       -0.39062        0.00000
 BRILLOUIN|   453           0.00195       -0.04688       -0.35938        0.00000
 BRILLOUIN|   454           0.00195       -0.04688       -0.32812        0.00000
 BRILLOUIN|   455           0.00195       -0.04688       -0.29688        0.00000
 BRILLOUIN|   456           0.00195       -0.04688       -0.26562        0.00000
 BRILLOUIN|   457           0.00195       -0.04688       -0.23438        0.00000
 BRILLOUIN|   458           0.00195       -0.04688       -0.20312        0.00000
 BRILLOUIN|   459           0.00195       -0.04688       -0.17188        0.00000
 BRILLOUIN|   460           0.00195       -0.04688       -0.14062        0.00000
 BRILLOUIN|   461           0.00195       -0.04688       -0.10938        0.00000
 BRILLOUIN|   462           0.00195       -0.04688       -0.07812        0.00000
 BRILLOUIN|   463           0.00195       -0.04688       -0.04688        0.00000
 BRILLOUIN|   464           0.00195       -0.04688       -0.01562        0.00000
 BRILLOUIN|   465           0.00195       -0.04688        0.01562        0.00000
 BRILLOUIN|   466           0.00195       -0.04688        0.04688        0.00000
 BRILLOUIN|   467           0.00195       -0.04688        0.07812        0.00000
 BRILLOUIN|   468           0.00195       -0.04688        0.10938        0.00000
 BRILLOUIN|   469           0.00195       -0.04688        0.14062        0.00000
 BRILLOUIN|   470           0.00195       -0.04688        0.17188        0.00000
 BRILLOUIN|   471           0.00195       -0.04688        0.20312        0.00000
 BRILLOUIN|   472           0.00195       -0.04688        0.23438        0.00000
 BRILLOUIN|   473           0.00195       -0.04688        0.26562        0.00000
 BRILLOUIN|   474           0.00195       -0.04688        0.29688        0.00000
 BRILLOUIN|   475           0.00195       -0.04688        0.32812        0.00000
 BRILLOUIN|   476           0.00195       -0.04688        0.35938        0.00000
 BRILLOUIN|   477           0.00195       -0.04688        0.39062        0.00000
 BRILLOUIN|   478           0.00195       -0.04688        0.42188        0.00000
 BRILLOUIN|   479           0.00195       -0.04688        0.45312        0.00000
 BRILLOUIN|   480           0.00195       -0.04688        0.48438        0.00000
 BRILLOUIN|   481           0.00195       -0.01562       -0.48438        0.00000
 BRILLOUIN|   482           0.00195       -0.01562       -0.45312        0.00000
 BRILLOUIN|   483           0.00195       -0.01562       -0.42188        0.00000
 BRILLOUIN|   484           0.00195       -0.01562       -0.39062        0.00000
 BRILLOUIN|   485           0.00195       -0.01562       -0.35938        0.00000
 BRILLOUIN|   486           0.00195       -0.01562       -0.32812        0.00000
 BRILLOUIN|   487           0.00195       -0.01562       -0.29688        0.00000
 BRILLOUIN|   488           0.00195       -0.01562       -0.26562        0.00000
 BRILLOUIN|   489           0.00195       -0.01562       -0.23438        0.00000
 BRILLOUIN|   490           0.00195       -0.01562       -0.20312        0.00000
 BRILLOUIN|   491           0.00195       -0.01562       -0.17188        0.00000
 BRILLOUIN|   492           0.00195       -0.01562       -0.14062        0.00000
 BRILLOUIN|   493           0.00195       -0.01562       -0.10938        0.00000
 BRILLOUIN|   494           0.00195       -0.01562       -0.07812        0.00000
 BRILLOUIN|   495           0.00195       -0.01562       -0.04688        0.00000
 BRILLOUIN|   496           0.00195       -0.01562       -0.01562        0.00000
 BRILLOUIN|   497           0.00195       -0.01562        0.01562        0.00000
 BRILLOUIN|   498           0.00195       -0.01562        0.04688        0.00000
 BRILLOUIN|   499           0.00195       -0.01562        0.07812        0.00000
 BRILLOUIN|   500           0.00195       -0.01562        0.10938        0.00000
 BRILLOUIN|   501           0.00195       -0.01562        0.14062        0.00000
 BRILLOUIN|   502           0.00195       -0.01562        0.17188        0.00000
 BRILLOUIN|   503           0.00195       -0.01562        0.20312        0.00000
 BRILLOUIN|   504           0.00195       -0.01562        0.23438        0.00000
 BRILLOUIN|   505           0.00195       -0.01562        0.26562        0.00000
 BRILLOUIN|   506           0.00195       -0.01562        0.29688        0.00000
 BRILLOUIN|   507           0.00195       -0.01562        0.32812        0.00000
 BRILLOUIN|   508           0.00195       -0.01562        0.35938        0.00000
 BRILLOUIN|   509           0.00195       -0.01562        0.39062        0.00000
 BRILLOUIN|   510           0.00195       -0.01562        0.42188        0.00000
 BRILLOUIN|   511           0.00195       -0.01562        0.45312        0.00000
 BRILLOUIN|   512           0.00195       -0.01562        0.48438        0.00000
 *******************************************************************************

 *******************************************************************************
 *******************************************************************************
 **                                                                           **
 **     #####                         ##              ##                      **
 **    ##   ##            ##          ##              ##                      **
 **   ##     ##                       ##            ######                    **
 **   ##     ##  ##   ##  ##   #####  ##  ##   ####   ##    #####    #####    **
 **   ##     ##  ##   ##  ##  ##      ## ##   ##      ##   ##   ##  ##   ##   **
 **   ##  ## ##  ##   ##  ##  ##      ####     ###    ##   ######   ######    **
 **    ##  ###   ##   ##  ##  ##      ## ##      ##   ##   ##       ##        **
 **     #######   #####   ##   #####  ##  ##  ####    ##    #####   ##        **
 **           ##                                                    ##        **
 **                                                                           **
 **                                                ... make the atoms dance   **
 **                                                                           **
 **            Copyright (C) by CP2K developers group (2000-2025)             **
 **                      J. Chem. Phys. 152, 194103 (2020)                    **
 **                                                                           **
 *******************************************************************************

 DFT| Spin restricted Kohn-Sham (RKS) calculation                            RKS
 DFT| Multiplicity                                                             1
 DFT| Number of spin states                                                    1
 DFT| Charge                                                                   0
 DFT| Self-interaction correction (SIC)                                       NO
 DFT| Cutoffs: density                                              1.000000E-10
 DFT|          gradient                                             1.000000E-10
 DFT|          tau                                                  1.000000E-10
 DFT|          cutoff_smoothing_range                               0.000000E+00
 DFT| XC density smoothing                                                  NONE
 DFT| XC derivatives                                                          PW

 FUNCTIONAL| PBE:
 FUNCTIONAL| J.P.Perdew, K.Burke, M.Ernzerhof, Phys. Rev. Letter, vol. 77, n 18,
 FUNCTIONAL|  pp. 3865-3868, (1996) {spin unpolarized}                          


 QS| Method:                                                                GAPW
 QS| Density plane wave grid type                        NON-SPHERICAL FULLSPACE
 QS| Number of grid levels:                                                    4
 QS| Density cutoff [a.u.]:                                                250.0
 QS| Multi grid cutoff [a.u.]: 1) grid level                               250.0
 QS|                           2) grid level                                83.3
 QS|                           3) grid level                                27.8
 QS|                           4) grid level                                 9.3
 QS| Grid level progression factor:                                          3.0
 QS| Relative density cutoff [a.u.]:                                        50.0
 QS| Interaction thresholds: eps_pgf_orb:                                1.0E-12
 QS|                         eps_filter_matrix:                          0.0E+00
 QS|                         eps_core_charge:                            1.0E-14
 QS|                         eps_rho_gspace:                             1.0E-12
 QS|                         eps_rho_rspace:                             1.0E-12
 QS|                         eps_gvg_rspace:                             1.0E-06
 QS|                         eps_ppl:                                    1.0E-02
 QS|                         eps_ppnl:                                   1.0E-08
 QS| GAPW|      One center basis from orbital basis primitives
 QS| GAPW|                   eps_fit:                                    1.0E-04
 QS| GAPW|                   eps_iso:                                    1.0E-12
 QS| GAPW|                   eps_svd:                                    1.0E-08
 QS| GAPW|                   eps_cpc:                                    1.0E-12
 QS| GAPW|   atom-r-grid: quadrature:                                     GC_LOG
 QS| GAPW|      atom-s-grid:  max l :                                          6
 QS| GAPW|      max_l_rho0 :                                                   2
 QS| GAPW|      At least one kind is NOT PAW, i.e. it has only soft AO 
 QS| GAPW|      The NOT PAW atoms are treated fully GPW


 ATOMIC KIND INFORMATION

  1. Atomic kind: Mo                                    Number of atoms:       1

     Orbital Basis Set                                   DZVP-MOLOPT-PBE-GTH-q14

       Number of orbital shell sets:                                           1
       Number of orbital shells:                                               8
       Number of primitive Cartesian functions:                                6
       Number of Cartesian basis functions:                                   31
       Number of spherical basis functions:                                   26
       Norm type:                                                              2

       Normalised Cartesian orbitals:

                        Set   Shell   Orbital            Exponent    Coefficient

                          1       1    2s                2.544684      -0.188075
                                                         2.316245       0.296669
                                                         1.083413       0.433312
                                                         0.493050       0.017917
                                                         0.171157       0.067610
                                                         0.057249       0.008222

                          1       2    3s                2.544684      -0.583575
                                                         2.316245       0.348793
                                                         1.083413       0.149394
                                                         0.493050       0.143576
                                                         0.171157      -0.084316
                                                         0.057249      -0.067836

                          1       3    4s                2.544684       0.985904
                                                         2.316245       0.700484
                                                         1.083413      -0.090132
                                                         0.493050      -0.181791
                                                         0.171157       0.061855
                                                         0.057249      -0.047132

                          1       4    3px               2.544684       2.385025
                                                         2.316245      -1.995598
                                                         1.083413      -0.348630
                                                         0.493050      -0.168348
                                                         0.171157      -0.074762
                                                         0.057249      -0.009095
                          1       4    3py               2.544684       2.385025
                                                         2.316245      -1.995598
                                                         1.083413      -0.348630
                                                         0.493050      -0.168348
                                                         0.171157      -0.074762
                                                         0.057249      -0.009095
                          1       4    3pz               2.544684       2.385025
                                                         2.316245      -1.995598
                                                         1.083413      -0.348630
                                                         0.493050      -0.168348
                                                         0.171157      -0.074762
                                                         0.057249      -0.009095

                          1       5    4px               2.544684       1.680915
                                                         2.316245      -1.701974
                                                         1.083413      -0.295783
                                                         0.493050      -0.016655
                                                         0.171157       0.117406
                                                         0.057249       0.015577
                          1       5    4py               2.544684       1.680915
                                                         2.316245      -1.701974
                                                         1.083413      -0.295783
                                                         0.493050      -0.016655
                                                         0.171157       0.117406
                                                         0.057249       0.015577
                          1       5    4pz               2.544684       1.680915
                                                         2.316245      -1.701974
                                                         1.083413      -0.295783
                                                         0.493050      -0.016655
                                                         0.171157       0.117406
                                                         0.057249       0.015577

                          1       6    4dx2              2.544684     -22.567275
                                                         2.316245       8.400806
                                                         1.083413       2.941227
                                                         0.493050      -0.248714
                                                         0.171157       0.016061
                                                         0.057249      -0.000063
                          1       6    4dxy              2.544684     -39.087666
                                                         2.316245      14.550622
                                                         1.083413       5.094354
                                                         0.493050      -0.430786
                                                         0.171157       0.027818
                                                         0.057249      -0.000108
                          1       6    4dxz              2.544684     -39.087666
                                                         2.316245      14.550622
                                                         1.083413       5.094354
                                                         0.493050      -0.430786
                                                         0.171157       0.027818
                                                         0.057249      -0.000108
                          1       6    4dy2              2.544684     -22.567275
                                                         2.316245       8.400806
                                                         1.083413       2.941227
                                                         0.493050      -0.248714
                                                         0.171157       0.016061
                                                         0.057249      -0.000063
                          1       6    4dyz              2.544684     -39.087666
                                                         2.316245      14.550622
                                                         1.083413       5.094354
                                                         0.493050      -0.430786
                                                         0.171157       0.027818
                                                         0.057249      -0.000108
                          1       6    4dz2              2.544684     -22.567275
                                                         2.316245       8.400806
                                                         1.083413       2.941227
                                                         0.493050      -0.248714
                                                         0.171157       0.016061
                                                         0.057249      -0.000063

                          1       7    5dx2              2.544684       0.273804
                                                         2.316245       3.109207
                                                         1.083413      -0.209533
                                                         0.493050       0.289178
                                                         0.171157       0.022622
                                                         0.057249       0.000731
                          1       7    5dxy              2.544684       0.474242
                                                         2.316245       5.385305
                                                         1.083413      -0.362922
                                                         0.493050       0.500872
                                                         0.171157       0.039182
                                                         0.057249       0.001265
                          1       7    5dxz              2.544684       0.474242
                                                         2.316245       5.385305
                                                         1.083413      -0.362922
                                                         0.493050       0.500872
                                                         0.171157       0.039182
                                                         0.057249       0.001265
                          1       7    5dy2              2.544684       0.273804
                                                         2.316245       3.109207
                                                         1.083413      -0.209533
                                                         0.493050       0.289178
                                                         0.171157       0.022622
                                                         0.057249       0.000731
                          1       7    5dyz              2.544684       0.474242
                                                         2.316245       5.385305
                                                         1.083413      -0.362922
                                                         0.493050       0.500872
                                                         0.171157       0.039182
                                                         0.057249       0.001265
                          1       7    5dz2              2.544684       0.273804
                                                         2.316245       3.109207
                                                         1.083413      -0.209533
                                                         0.493050       0.289178
                                                         0.171157       0.022622
                                                         0.057249       0.000731

                          1       8    5fx3              2.544684       0.050018
                                                         2.316245      -0.051094
                                                         1.083413      -0.302285
                                                         0.493050      -0.146467
                                                         0.171157      -0.013670
                                                         0.057249      -0.000239
                          1       8    5fx2y             2.544684       0.111843
                                                         2.316245      -0.114249
                                                         1.083413      -0.675930
                                                         0.493050      -0.327511
                                                         0.171157      -0.030567
                                                         0.057249      -0.000535
                          1       8    5fx2z             2.544684       0.111843
                                                         2.316245      -0.114249
                                                         1.083413      -0.675930
                                                         0.493050      -0.327511
                                                         0.171157      -0.030567
                                                         0.057249      -0.000535
                          1       8    5fxy2             2.544684       0.111843
                                                         2.316245      -0.114249
                                                         1.083413      -0.675930
                                                         0.493050      -0.327511
                                                         0.171157      -0.030567
                                                         0.057249      -0.000535
                          1       8    5fxyz             2.544684       0.193717
                                                         2.316245      -0.197885
                                                         1.083413      -1.170745
                                                         0.493050      -0.567265
                                                         0.171157      -0.052944
                                                         0.057249      -0.000927
                          1       8    5fxz2             2.544684       0.111843
                                                         2.316245      -0.114249
                                                         1.083413      -0.675930
                                                         0.493050      -0.327511
                                                         0.171157      -0.030567
                                                         0.057249      -0.000535
                          1       8    5fy3              2.544684       0.050018
                                                         2.316245      -0.051094
                                                         1.083413      -0.302285
                                                         0.493050      -0.146467
                                                         0.171157      -0.013670
                                                         0.057249      -0.000239
                          1       8    5fy2z             2.544684       0.111843
                                                         2.316245      -0.114249
                                                         1.083413      -0.675930
                                                         0.493050      -0.327511
                                                         0.171157      -0.030567
                                                         0.057249      -0.000535
                          1       8    5fyz2             2.544684       0.111843
                                                         2.316245      -0.114249
                                                         1.083413      -0.675930
                                                         0.493050      -0.327511
                                                         0.171157      -0.030567
                                                         0.057249      -0.000535
                          1       8    5fz3              2.544684       0.050018
                                                         2.316245      -0.051094
                                                         1.083413      -0.302285
                                                         0.493050      -0.146467
                                                         0.171157      -0.013670
                                                         0.057249      -0.000239

     RI Auxiliary Basis Set                                                   RI

       Number of orbital shell sets:                                          17
       Number of orbital shells:                                              17
       Number of primitive Cartesian functions:                               17
       Number of Cartesian basis functions:                                   91
       Number of spherical basis functions:                                   69
       Norm type:                                                              2

       Normalised Cartesian orbitals:

                        Set   Shell   Orbital            Exponent    Coefficient

                          1       1    1s                0.210000       0.221093

                          2       1    1px               0.210000       0.202635
                          2       1    1py               0.210000       0.202635
                          2       1    1pz               0.210000       0.202635

                          3       1    1dx2              0.346956       0.258160
                          3       1    1dxy              0.346956       0.447147
                          3       1    1dxz              0.346956       0.447147
                          3       1    1dy2              0.346956       0.258160
                          3       1    1dyz              0.346956       0.447147
                          3       1    1dz2              0.346956       0.258160

                          4       1    1s                0.360392       0.331506

                          5       1    1fx3              0.410523       0.198593
                          5       1    1fx2y             0.410523       0.444066
                          5       1    1fx2z             0.410523       0.444066
                          5       1    1fxy2             0.410523       0.444066
                          5       1    1fxyz             0.410523       0.769146
                          5       1    1fxz2             0.410523       0.444066
                          5       1    1fy3              0.410523       0.198593
                          5       1    1fy2z             0.410523       0.444066
                          5       1    1fyz2             0.410523       0.444066
                          5       1    1fz3              0.410523       0.198593

                          6       1    1px               0.498778       0.597481
                          6       1    1py               0.498778       0.597481
                          6       1    1pz               0.498778       0.597481

                          7       1    1gx4              0.570000       0.237187
                          7       1    1gx3y             0.570000       0.627538
                          7       1    1gx3z             0.570000       0.627538
                          7       1    1gx2y2            0.570000       0.810149
                          7       1    1gx2yz            0.570000       1.403218
                          7       1    1gx2z2            0.570000       0.810149
                          7       1    1gxy3             0.570000       0.627538
                          7       1    1gxy2z            0.570000       1.403218
                          7       1    1gxyz2            0.570000       1.403218
                          7       1    1gxz3             0.570000       0.627538
                          7       1    1gy4              0.570000       0.237187
                          7       1    1gy3z             0.570000       0.627538
                          7       1    1gy2z2            0.570000       0.810149
                          7       1    1gyz3             0.570000       0.627538
                          7       1    1gz4              0.570000       0.237187

                          8       1    1dx2              0.576698       0.628158
                          8       1    1dxy              0.576698       1.088002
                          8       1    1dxz              0.576698       1.088002
                          8       1    1dy2              0.576698       0.628158
                          8       1    1dyz              0.576698       1.088002
                          8       1    1dz2              0.576698       0.628158

                          9       1    1s                0.619083       0.497418

                         10       1    1s                1.092167       0.761424

                         11       1    1fx3              1.103628       1.837832
                         11       1    1fx2y             1.103628       4.109516
                         11       1    1fx2z             1.103628       4.109516
                         11       1    1fxy2             1.103628       4.109516
                         11       1    1fxyz             1.103628       7.117891
                         11       1    1fxz2             1.103628       4.109516
                         11       1    1fy3              1.103628       1.837832
                         11       1    1fy2z             1.103628       4.109516
                         11       1    1fyz2             1.103628       4.109516
                         11       1    1fz3              1.103628       1.837832

                         12       1    1px               1.390701       2.152694
                         12       1    1py               1.390701       2.152694
                         12       1    1pz               1.390701       2.152694

                         13       1    1dx2              1.439171       3.112475
                         13       1    1dxy              1.439171       5.390965
                         13       1    1dxz              1.439171       5.390965
                         13       1    1dy2              1.439171       3.112475
                         13       1    1dyz              1.439171       5.390965
                         13       1    1dz2              1.439171       3.112475

                         14       1    1gx4              1.615953       4.164995
                         14       1    1gx3y             1.615953      11.019542
                         14       1    1gx3z             1.615953      11.019542
                         14       1    1gx2y2            1.615953      14.226167
[...]

 M. Krack, M. Parrinello.
 Phys. Chem. Chem. Phys. 2, 2105-2112 (2000).
 All-electron ab-initio molecular dynamics.
 https://doi.org/10.1039/b001167n

 G. Lippert, J. Hutter, M. Parrinello.
 Theor. Chem. Acc. 103, 124-140 (1999).
 The Gaussian and augmented-plane-wave density functional method for ab initio 
 molecular dynamics simulations.
 https://doi.org/10.1007/s002140050523

 C. Hartwigsen, S. Goedecker, J. Hutter.
 Phys. Rev. B 58, 3641-3662 (1998).
 Relativistic separable dual-space Gaussian pseudopotentials from H to Rn.
 https://doi.org/10.1103/PhysRevB.58.3641

 S. Goedecker, M. Teter, J. Hutter.
 Phys. Rev. B 54, 1703-1710 (1996).
 Separable dual-space Gaussian pseudopotentials.
 https://doi.org/10.1103/PhysRevB.54.1703

 J. P. Perdew, K. Burke, M. Ernzerhof.
 Phys. Rev. Lett. 77, 3865-3868 (1996).
 Generalized gradient approximation made simple.
 https://doi.org/10.1103/PhysRevLett.77.3865


 -------------------------------------------------------------------------------
 -                                                                             -
 -                                T I M I N G                                  -
 -                                                                             -
 -------------------------------------------------------------------------------
 SUBROUTINE                       CALLS  ASD         SELF TIME        TOTAL TIME
                                MAXIMUM       AVERAGE  MAXIMUM  AVERAGE  MAXIMUM
 CP2K                                 1  1.0     0.01     0.02 24940.58 24940.58
 qs_energies                          1  2.0     0.00     0.00 24939.54 24939.59
 qs_energies_properties               1  3.0     0.00     0.00 24642.70 24642.75
 post_scf_bandstructure               1  4.0     0.00     0.00 24642.70 24642.75
 gw                                   1  5.0     0.00     0.00 24552.15 24552.16
 gw_calc_small_cell_full_kp           1  6.0     0.00     0.00 24236.82 24236.83
 dbt_total                      *******  9.9    59.29    68.54 11828.43 12874.59
 dbt_contract                   ******* 10.6    98.31   110.02  9543.91 10317.93
 compute_W_real_space                 1  7.0    23.61    24.10  9677.25  9677.37
 dbt_tas_multiply               4889356 13.0    10.22    11.87  8846.57  9606.96
 dbt_tas_total                  4889356 14.0   522.64   586.14  8840.12  9600.09
 compute_Minv_and_Vsqrt               1  8.0     0.26     0.27  8580.32  8580.56
 build_2c_coulomb_matrix_kp_sma       2  9.0    10.46    11.52  8563.37  8563.44
 compute_Sigma_c                      1  7.0     0.00     0.01  8139.22  8139.25
 build_2c_coulomb_matrix_kp_sma  655360 10.0  7251.39  7533.34  7251.39  7533.34
 compute_chi                          1  7.0     0.11     0.13  6062.48  6062.61
 contract_to_Sigma                  427  8.0    87.94   104.25  4611.21  5172.58
 dbt_tas_dbm                    4889356 15.0     9.31    10.72  3574.42  3986.28
 dbm_multiply                   4889356 17.0  3553.39  3963.81  3553.39  3963.81
 mp_sync                        ******* 11.9  2250.99  3362.78  2250.99  3362.78
 contract_M_occ_vir_to_chi          210  8.0   147.58   180.13  2504.15  3330.52
 dbt_tas_estimate_result_nze    2444678 13.5   653.20   740.08  2765.73  3106.58
 contract_W                         217  8.0    12.89    13.51  2686.46  2938.00
 contract_to_Sigma_3c_x_G       3851113  9.0     9.42    10.12  2648.13  2913.76
 dbt_copy                       ******* 11.1    58.05    67.46  2527.20  2788.62
 G_times_3c                       19440  8.0    16.39    17.22  2488.92  2634.02
 contract_to_Sigma_contract       19764  9.0    18.53    20.95  1853.54  2245.98
 dbt_reshape                    6365454 12.0  1370.99  1572.24  1813.98  2075.86
 dbt_tas_mm_2                   1834560 16.1     4.07     5.66  1549.77  1997.39
 get_t_3c_int                   5991066  9.6    63.90    81.80  1320.01  1538.43
 dbt_tas_mm_3T                  1985244 16.2     2.72     3.18  1241.39  1374.40
 reshape_mm_small               4889356 15.0   449.60   487.49  1068.09  1135.79
 dbt_tas_reshape                5449552 15.5    71.58    83.67   902.12   964.57
 dbt_tas_mm_1N                  1263752 15.5     1.65     1.85   771.78   833.46
 convert_to_new_pgrid           ******* 15.0    96.45   108.34   657.79   724.51
 dbt_tas_create_split           ******* 16.0    17.06    19.39   578.31   676.65
 dbt_tas_create_split_rows_or_c ******* 17.0    67.41    76.53   561.25   658.81
 dbm_copy                       9778712 16.0   561.34   621.52   561.34   621.52
 reshape_mm_compatible          4889356 15.0    89.04    98.65   533.08   606.45
 dbm_reserve_blocks             ******* 16.6   508.01   596.75   508.01   596.75
 dbt_tas_reserve_blocks_index   ******* 15.7    28.78    31.43   496.40   568.96
 mp_sum_dm                       655410 10.0   501.77   530.77   501.77   530.77
 dbt_tas_copy                   4198697 12.6   238.47   304.98   353.64   465.06
 add_V_L                         327680 10.0    14.44   463.01    14.44   463.01
 dbt_tas_distribution_new       ******* 15.8   211.07   239.63   398.35   457.10
 dbt_tas_replicate              4889356 15.0   234.91   254.40   419.47   455.95
 dbt_remap                       310959 11.0    48.54    54.84   420.77   447.03
 G_occ_vir                          121  8.0     0.52     0.65   436.50   439.29
 change_split                   6773838 15.5    32.14    37.10   369.36   431.68
 dbt_tas_reshape_buffer_fill    5449552 16.5   400.25   426.16   400.25   426.16
 dbcsr_complete_redistribute     438129  9.8    15.62    20.87   364.41   408.56
 add_rs_to_ikp                  *******  9.9   381.95   393.43   381.95   393.43
 trafo_rs_to_ikp                  10736  8.1     7.89     8.30   361.82   371.03
 mp_cart_create                 ******* 16.7   291.35   339.85   313.59   367.71
 add_ikp_to_rs                  *******  9.9   317.69   365.97   317.69   365.97
 dbt_copy_nocomm                1387260 11.0   176.36   259.06   244.42   359.70
 fm_to_local_tensor              146072  9.0     3.28     4.22   352.28   352.33
 dbt_reserve_blocks_index_array 7617644 13.0     9.94    12.17   289.63   341.78
 dbt_reserve_blocks_index       7784017 13.9    13.28    15.98   288.99   339.80
 copy_dbcsr_to_fm                239634  8.2     2.81     3.09   335.13   339.51
 dbt_tas_reshape_buffer_obtain  5449552 16.5   223.54   248.64   301.82   328.37
 create_and_init_bs_env_for_gw        1  6.0     0.00     0.00   315.33   315.36
 scf_env_do_scf                       1  3.0     0.00     0.00   296.64   296.64
 scf_env_do_scf_inner_loop           51  4.0     0.01     0.01   296.64   296.64
 add_ikp_to_all_rs                 9848  8.0     6.77     7.05   282.94   293.32
 qs_scf_new_mos_kp                   51  5.0     0.00     0.00   286.78   286.85
 do_general_diag_kp                  51  6.0     0.58     0.65   286.78   286.85
 compute_3c_integrals                 1  7.0     0.08     0.09   280.82   280.82
 build_3c_integrals                   1  8.0   244.96   270.70   254.38   280.16
 dbt_tas_reserve_blocks_templat 8695122 14.1    48.83    62.28   193.97   257.81
 fm_to_local_array                  934  8.1    75.24    77.70   252.57   253.54
 compute_Sigma_x                      1  7.0     0.00     0.00   240.82   240.85
 dbt_communicate_buffer         6365454 13.0   204.72   231.81   204.72   231.81
 mp_alltoall_i22                 796275 10.2   176.33   227.67   176.33   227.67
 copy_fm_to_dbcsr                198495  9.5     0.93     1.01   172.62   217.12
 mp_comm_dup                    ******* 18.6   172.36   203.24   182.72   216.71
 dbcsr_desymmetrize_deep         358146  8.5     6.15     7.26   192.06   200.09
 global_matrix_to_local_matrix   146072 10.0     2.98     5.86   146.13   194.12
 mp_sum_dm3                        1046  9.0   182.39   183.17   182.39   183.17
 dbm_add                        4889356 15.0   165.20   181.12   165.20   181.12
 local_dbt_to_global_fm              91  8.0     0.35     0.38   168.28   168.28
 fm_add_ikp_to_rs                123904  9.0    77.96    80.21   119.52   166.97
 dbt_tas_create_new             ******* 15.3   150.54   165.23   150.54   165.23
 dbt_permute_index              ******* 12.2   120.61   136.16   135.52   153.51
 dbt_tas_merge                  1834560 15.1    87.75   115.14   113.51   150.31
 mp_comm_split_direct           ******* 18.0   118.86   137.91   126.25   147.79
 mp_waitall_1                   1247253 11.4   104.32   144.37   104.32   144.37
 send_data                       146072 11.0     0.19     0.23   106.65   143.25
 communicate_buffer              146072 12.0     2.86    24.73   106.45   143.06
 mp_comm_free                   ******* 15.7   122.17   138.38   122.17   138.38
 power                            20408  8.0    13.13    13.56   131.40   133.46
 cp_cfm_gemm                     284468 10.9   112.57   128.30   112.57   128.30
 parallel_gemm_cfm               280952  8.9     0.26     0.29   112.36   128.09
 parallel_gemm_cfm_gemm          280952  9.9     0.27     0.32   112.10   127.83
 mp_alltoall_d11v               2388825 10.7   114.21   122.38   114.21   122.38
 diag_complex                     20408  9.0   118.27   120.11   118.27   120.11
 compute_QP_energies                  1  7.0     0.07     0.10   117.04   117.08
 trafo_to_k_and_nn                71492  8.0     0.50     0.58   116.78   116.81
 dbt_align_index                7334034 11.5    17.33    20.29   103.36   114.55
 mp_alltoall_i11v               1672533 10.5   109.90   113.21   109.90   113.21
 fm_MWM_R_t_to_local_tensor_W_R      30  8.0     0.05     0.05   103.05   103.05
 dbt_tas_mp_comm                2724776 13.2    10.18    11.27    84.50   102.14
 dbt_tas_communicate_buffer     ******* 17.3    91.60   101.93    91.60   101.93
 dbt_reserve_blocks_template    1387260 12.0     6.03     9.22    68.06   100.64
 add_R                          *******  9.3    67.79    73.74    90.68    98.93
 dbm_filter                     7315167 14.9    75.37    98.78    75.37    98.78
 dbt_tas_reshape_communicate_bu 5449552 16.5     7.37     8.24    83.62    94.60
 mult_W_with_Minv                    30  8.0     1.19     1.22    86.07    86.14
 fm_trafo_rs_to_ikp               71492  9.0    46.50    47.53    74.52    81.98
 dbcsr_finalize                 1776245 11.1    12.35    15.70    52.91    68.32
 dbt_distribution_new_expert     914072 12.2    10.95    12.51    60.29    67.19
 dbt_destroy                    ******* 11.1    54.37    60.18    59.16    64.90
 reshape_mm_template             621918 15.5    34.07    36.54    60.03    64.79
 get_data                        146072 11.0     6.68    63.68     7.10    64.22
 dbm_scale                      ******* 13.3    44.34    63.22    44.34    63.22
 get_V_tr_R                          34  9.0     0.18     0.19    60.27    60.34
 cp_cfm_heevd                      4892  7.5     0.01     0.01    58.26    58.35
 cp_cfm_heevd_base                 4892  8.5    58.25    58.34    58.25    58.34
 kpoint_density_transform            51  7.0     0.17     0.20    57.03    57.06
 local_dbt_to_global_mat          87451  9.0     1.08     1.38    37.09    55.30
 hybrid_alltoall_any             358146  9.5     1.80     1.93    52.38    54.93
 mp_cart_sub                     479347 10.2    52.45    52.62    52.45    52.62
 mp_cart_get                    ******* 16.0    46.34    52.56    46.34    52.56
 mp_comm_size                   ******* 16.2    37.96    49.40    37.96    49.40
 local_matrix_to_global_matrix    87451 10.0     0.39     0.42    28.59    46.11
 dos_pdos_ldos                        1  5.0     0.01     0.01    45.10    45.15
 mp_isend_dv                    ******* 12.3     1.92    44.59     1.92    44.59
 dbcsr_filter_anytype            656936 11.0     4.60     5.26    32.24    44.35
 SOC_ev                            2344  6.0     0.03     0.03    42.40    42.45
 is_cell_in_index_to_cell       *******  9.8    39.18    41.60    39.18    41.60
 cp_fm_start_copy_general        156672  7.3     1.43     2.63    38.76    39.44
 dbt_create_new                  457036 11.7     7.35     9.28    33.66    37.59
 dbt_tas_reshape_get_coord      5449552 16.5    30.61    34.52    30.61    34.52
 dbcsr_merge_all                 664461 11.9    19.39    25.92    25.78    33.96
 dbt_create_matrix               146072 10.0     1.86     2.05    30.63    33.64
 mp_comm_rank                   ******* 16.2    28.87    32.82    28.87    32.82
 mp_allgather_i                  313344  8.3    30.28    32.10    30.28    32.10
 rskp_transform                   59256  7.1     0.73    31.83     0.73    31.83
 dbt_create_3c_R1_R2                 62  8.0     4.60     4.95    28.72    31.09
 create_and_init_bs_env               1  5.0     0.00     0.00    30.99    30.99
 compute_cfm_mo_coeff_kp_and_ei       1  6.0     0.01     0.01    30.99    30.99
 mp_alltoall_i                  ******* 15.0    26.83    30.60    26.83    30.60
 rsmat_to_kp                       7032  7.2     0.12     0.13    27.91    28.10
 dbt_create_template            2660596  9.0    25.78    27.91    25.78    27.91
 set_blocks                       87451 11.0     1.83     8.76     9.37    22.09
 cp_cfm_geeig_canon                1172  7.0     0.01     0.01    21.32    21.36
 mp_sum_l                       ******* 15.2    16.43    19.66    16.43    19.66
 dbt_pgrid_create_expert         914075 13.2     2.32     2.65    16.97    19.48
 destroy_t_2d                        62  8.0     4.16     5.79    16.36    17.75
 mp_sum_i                       4475238 15.9    13.41    16.93    13.41    16.93
 dbt_tas_replicate_communicate_ 3248996 15.9     4.42     5.02    15.64    16.54
 mp_isend_im2                   ******* 12.9     0.74    15.07     0.74    15.07
 heuristic_RI_regularization          1  7.0     0.00     0.00    14.88    14.89
 send_sizes_1                    146072 11.0     0.19     0.21    11.48    14.81
 dbt_nd_mp_comm                  457031 11.7     1.73     2.02    12.98    14.69
 soc                                  1  5.0     0.00     0.00    14.46    14.46
 H_KS_spinor_kp                       1  6.0     0.02     0.02    14.40    14.41
 dbcsr_work_create              1022607 10.5     8.06     9.38    11.89    13.82
 transform_dmat                   26112  8.0     0.30    13.30     0.30    13.30
 dbcsr_iterator_start           3775600 11.0    11.50    12.02    12.69    13.20
 dbt_tas_reshape_alltoall       5449552 16.5     6.06     6.76    10.36    12.20
 dbcsr_work_destroy_all         1022607 11.4     6.65     8.10     9.57    11.56
 comm_data                        87451 11.0     0.39     2.09     8.88    11.49
 mp_waitall_2                    174902 12.0     8.17    10.86     8.17    10.86
 mp_max_i                       ******* 11.6     8.04     9.88     8.04     9.88
 copy_fm_to_dbcsr_bc             198495 10.5     2.93     3.14     9.26     9.84
 dbt_copy_matrix_to_tensor       146072 10.0     3.53     4.03     8.75     9.66
 get_Minv_Vtr_Minv_R                  1  8.0     0.05     0.05     9.40     9.44
 setup_cells_3c                       1  7.0     0.28     0.28     9.44     9.44
 dbt_tas_merge_communicate_buff 1834560 16.1     2.40     3.27     6.52     9.36
 dbcsr_create_new               1429523 10.1     7.27     7.83     8.68     9.28
 build_3c_integral_block          10125  8.0     6.03     6.58     8.81     9.16
 send_sizes_2                    146072 11.0     0.19     0.23     7.26     8.73
 mp_sum_dv                        78682  8.9     4.58     8.09     4.58     8.09
 dbt_distribution_destroy        914072 12.2     5.67     6.54     7.01     7.96
 alloc_block_3c                       1  9.0     0.32     0.33     7.61     7.80
 mp_bcast_i                     ******* 18.0     6.50     7.80     6.50     7.80
 dbcsr_iterator_stop            3775600 11.0     6.49     6.79     7.45     7.76
 dbcsr_data_release             ******* 12.1     6.45     7.67     6.45     7.67
 reserve_blocks                  146072 11.0     0.77     0.86     7.02     7.57
 mp_cart_rank                   6498448 15.9     5.97     7.01     5.97     7.01
 dbt_tas_replicate_alltoall     3248996 15.9     3.50     4.13     5.63     6.78
 dbcsr_data_new                 ******* 11.5     5.76     6.65     5.76     6.65
 mp_dims_create                 ******* 14.4     5.36     6.50     5.36     6.50
 build_2c_integrals                  34 10.0     0.16     3.96     0.33     6.43
 dbt_buffer_get_index           ******* 16.8     5.35     5.99     5.35     5.99
 fill_buffer                      87451 11.0     2.85     5.45     3.09     5.71
 mp_bcast_iv                     626735  8.3     5.19     5.68     5.19     5.68
 trafo_V_xc_R_to_kp                   1  7.0     0.01     0.01     5.45     5.52
 copy_dbcsr_to_fm_bc             239634  9.2     2.31     2.47     5.11     5.29
 dbcsr_destroy                  1320580  9.8     2.47     2.64     4.67     5.18
 dbt_tas_merge_alltoall         1834560 16.1     2.31     3.16     3.81     5.09
 qs_ks_update_qs_env                 51  5.0     0.00     0.00     5.00     5.07
 comm_size                        87451 11.0     0.14     0.17     4.78     4.99
 qs_ks_build_kohn_sham_matrix        54  7.1     0.02     0.02     4.63     4.70
 tree_to_linear_d                497775 12.8     3.61     4.49     3.61     4.49
 dbcsr_reserve_blocks            569299 12.2     2.38     3.75     2.86     4.43
 rebuild_ks_matrix                   51  6.0     0.00     0.00     4.36     4.43
 dbt_reserve_blocks_matrix_to_t  146072 11.0     1.21     1.36     3.65     4.11
 transfer_pw2rs                     271 10.6     0.00     0.00     3.88     4.00
 transfer_pw2rs_250                 109 11.0     0.18     0.22     3.71     3.83
 add_to_DOS_PDOS                   4688  6.5     3.76     3.82     3.76     3.82
 sum_up_and_integrate                54  8.1     0.00     0.00     0.57     3.79
 integrate_v_rspace                  54  9.1     0.00     0.03     0.57     3.79
 integrate_vhg0_rspace               54  8.1     0.00     0.00     3.46     3.58
 dbcsr_set                      1454804 10.6     1.42     1.51     2.88     3.45
 transfer_rs2pw                     264  8.4     0.00     0.00     3.29     3.36
 qs_rho_update_rho_low               52  5.0     0.00     0.00     3.29     3.30
 calculate_rho_elec                  52  6.0     0.00     0.01     3.29     3.30
 grid_integrate_task_list            54 10.1     0.06     3.26     0.06     3.26
 transfer_rs2pw_250                 108 10.0     0.22     0.24     3.12     3.22
 density_rs2pw                       52  7.0     0.00     0.00     3.07     3.14
 mp_sendrecv_dv                   33528 10.4     3.03     3.11     3.03     3.11
 fill_mat_local                  146072 11.0     2.51     2.66     2.89     3.03
 setup_parallelization_Delta_R        1  7.0     0.00     0.00     2.94     2.94
 compute_n_tensor_ops_Delta_R         1  8.0     0.86     1.39     2.94     2.94
 get_coord                        87451 11.0     1.16     1.27     2.08     2.82
 grid_collocate_task_list            52  7.0     0.22     2.74     0.22     2.74
 dbt_copy_tensor_to_matrix        87451 10.0     0.86     0.97     2.42     2.69
 dbcsr_reserve_all_blocks        285946 11.6     0.49     0.53     1.50     2.58
 -------------------------------------------------------------------------------

 The number of warnings for this run is : 2
 
 -------------------------------------------------------------------------------
  **** **** ******  **  PROGRAM ENDED AT                 2025-03-14 22:26:08.378
 ***** ** ***  *** **   PROGRAM RAN ON                              f01r01c03s01
 **    ****   ******    PROGRAM RAN BY                                   di38fab
 ***** **    ** ** **   PROGRAM PROCESS ID                               2308231
  **** **  *******  **  PROGRAM STOPPED IN /hppfs/scratch/04/di38fab/04_TMD/2_Mo
                                           Se2/DZVPnonaug
