 DBCSR| CPU Multiplication driver                                           XSMM (U)
 DBCSR| Multrec recursion limit                                              512 (U)
 DBCSR| Multiplication stack size                                           1000 (D)
 DBCSR| Maximum elements for images                                    UNLIMITED (U)
 DBCSR| Multiplicative factor virtual images                                   1 (U)
 DBCSR| Use multiplication densification                                       T (D)
 DBCSR| Multiplication size stacks                                             3 (U)
 DBCSR| Use memory pool for CPU allocation                                     F (U)
 DBCSR| Number of 3D layers                                               SINGLE (U)
 DBCSR| Use MPI memory allocation                                              F (U)
 DBCSR| Use RMA algorithm                                                      F (U)
 DBCSR| Use Communication thread                                               T (U)
 DBCSR| Communication thread load                                             60 (D)
 DBCSR| MPI: My process id                                                     0
 DBCSR| MPI: Number of processes                                             128
 DBCSR| OMP: Current number of threads                                         8
 DBCSR| OMP: Max number of threads                                             8
 DBCSR| Split modifier for TAS multiplication algorithm                  1.0E+00 (U)


  **** **** ******  **  PROGRAM STARTED AT               2025-09-18 19:34:33.261
 ***** ** ***  *** **   PROGRAM STARTED ON                             n2lcn0103
 **    ****   ******    PROGRAM STARTED BY                              metdyn02
 ***** **    ** ** **   PROGRAM PROCESS ID                               2287639
  **** **  *******  **  PROGRAM STARTED IN /scratch/hpc-prf-metdyn/metdyn02_Remi
                                           /05_TMD_new/paperbenchmarksMoS2/kpoin
                                           ts/40

 CP2K| version string:                 CP2K version 2025.2 (Development Version)
 CP2K| source code revision number:                                  git:8d80afc
 CP2K| cp2kflags: omp libint fftw3 libxc libgrpp elpa parallel scalapack mpi_f08
 CP2K|             cosma xsmm plumed2 spglib libvori libbqb libvdwxc hdf5
 CP2K| is freely available from                            https://www.cp2k.org/
 CP2K| Program compiled at                         Mon Sep  8 11:02:08 CEST 2025
 CP2K| Program compiled on                                              n2login1
 CP2K| Program compiled for                                                local
 CP2K| Data directory path    /opt/software/pc2/EB-SW/software/CP2K/2025.2-foss-
 CP2K| Input file name                                                    GW.inp

 GLOBAL| Force Environment number                                              1
 GLOBAL| Basis set file name            /scratch/hpc-prf-metdyn/metdyn02_Remi/05
 GLOBAL| Potential file name                                  GTH_SOC_POTENTIALS
 GLOBAL| MM Potential file name                                     MM_POTENTIAL
 GLOBAL| Coordinate file name                                      __STD_INPUT__
 GLOBAL| Method name                                                        CP2K
 GLOBAL| Project name                                                       WSe2
 GLOBAL| Run type                                                         ENERGY
 GLOBAL| FFT library                                                       FFTW3
 GLOBAL| Diagonalization library                                            ELPA
 GLOBAL| Cholesky decomposition library                                ScaLAPACK
 GLOBAL| DGEMM library                                                      BLAS
 GLOBAL| Minimum number of eigenvectors for ELPA usage                        16
 GLOBAL| Orthonormality check for eigenvectors                          DISABLED
 GLOBAL| Matrix multiplication library                                     COSMA
 GLOBAL| All-to-all communication in single precision                          F
 GLOBAL| FFTs using library dependent lengths                                  F
 GLOBAL| Grid backend                                                       AUTO
 GLOBAL| Global print level                                               MEDIUM
 GLOBAL| MPI I/O enabled                                                       T
 GLOBAL| Total number of message passing processes                           128
 GLOBAL| Number of threads for this process                                    8
 GLOBAL| This output is from process                                           0
 GLOBAL| OpenMP stack size per thread (OMP_STACKSIZE)                    default
 GLOBAL| CPU model name                          AMD EPYC 7763 64-Core Processor
 GLOBAL| CPUID                                                              1002

 MEMORY| system memory details [Kb]
 MEMORY|                        rank 0           min           max       average
 MEMORY| MemTotal           1056620448    1056620432    1056620508    1056620473
 MEMORY| MemFree            1025305080    1025305080    1036874104    1029860784
 MEMORY| Buffers                 45348         41088        237052         74433
 MEMORY| Cached               20941200      11504712      20941200      16516192
 MEMORY| Slab                  3081440       2052144       4794840       2719104
 MEMORY| SReclaimable           847112        438380       1755752        822507
 MEMORY| MemLikelyFree      1047138740    1046482748    1049014416    1047273917


 *** Fundamental physical constants (SI units) ***

 *** Literature: B. J. Mohr and B. N. Taylor,
 ***             CODATA recommended values of the fundamental physical
 ***             constants: 2006, Web Version 5.1
 ***             http://physics.nist.gov/constants

 Speed of light in vacuum [m/s]                             2.99792458000000E+08
 Magnetic constant or permeability of vacuum [N/A**2]       1.25663706143592E-06
 Electric constant or permittivity of vacuum [F/m]          8.85418781762039E-12
 Planck constant (h) [J*s]                                  6.62606896000000E-34
 Planck constant (h-bar) [J*s]                              1.05457162825177E-34
 Elementary charge [C]                                      1.60217648700000E-19
 Electron mass [kg]                                         9.10938215000000E-31
 Electron g factor [ ]                                     -2.00231930436220E+00
 Proton mass [kg]                                           1.67262163700000E-27
 Fine-structure constant                                    7.29735253760000E-03
 Rydberg constant [1/m]                                     1.09737315685270E+07
 Avogadro constant [1/mol]                                  6.02214179000000E+23
 Boltzmann constant [J/K]                                   1.38065040000000E-23
 Atomic mass unit [kg]                                      1.66053878200000E-27
 Bohr radius [m]                                            5.29177208590000E-11

 *** Conversion factors ***

 [u] -> [a.u.]                                              1.82288848426455E+03
 [Angstrom] -> [Bohr] = [a.u.]                              1.88972613288564E+00
 [a.u.] = [Bohr] -> [Angstrom]                              5.29177208590000E-01
 [a.u.] -> [s]                                              2.41888432650478E-17
 [a.u.] -> [fs]                                             2.41888432650478E-02
 [a.u.] -> [J]                                              4.35974393937059E-18
 [a.u.] -> [N]                                              8.23872205491840E-08
 [a.u.] -> [K]                                              3.15774647902944E+05
 [a.u.] -> [kJ/mol]                                         2.62549961709828E+03
 [a.u.] -> [kcal/mol]                                       6.27509468713739E+02
 [a.u.] -> [Pa]                                             2.94210107994716E+13
 [a.u.] -> [bar]                                            2.94210107994716E+08
 [a.u.] -> [atm]                                            2.90362800883016E+08
 [a.u.] -> [eV]                                             2.72113838565563E+01
 [a.u.] -> [Hz]                                             6.57968392072181E+15
 [a.u.] -> [1/cm] (wave numbers)                            2.19474631370540E+05
 [a.u./Bohr**2] -> [1/cm]                                   5.14048714338585E+03
 

 CELL_TOP| Volume [angstrom^3]:                                       131.694613
 CELL_TOP| Vector a [angstrom     3.184     0.000     0.000   |a| =     3.184000
 CELL_TOP| Vector b [angstrom    -1.592     2.757     0.000   |b| =     3.184000
 CELL_TOP| Vector c [angstrom     0.000     0.000    15.000   |c| =    15.000000
 CELL_TOP| Angle (b,c), alpha [degree]:                                90.000000
 CELL_TOP| Angle (a,c), beta  [degree]:                                90.000000
 CELL_TOP| Angle (a,b), gamma [degree]:                               120.000000
 CELL_TOP| Numerically orthorhombic:                                          NO
 CELL_TOP| Periodicity                                                        XY

 GENERATE|  Preliminary Number of Bonds generated:                             0
 GENERATE|  Achieved consistency in connectivity generation.

 CELL| Volume [angstrom^3]:                                           131.694613
 CELL| Vector a [angstrom]:       3.184     0.000     0.000   |a| =     3.184000
 CELL| Vector b [angstrom]:      -1.592     2.757     0.000   |b| =     3.184000
 CELL| Vector c [angstrom]:       0.000     0.000    15.000   |c| =    15.000000
 CELL| Angle (b,c), alpha [degree]:                                    90.000000
 CELL| Angle (a,c), beta  [degree]:                                    90.000000
 CELL| Angle (a,b), gamma [degree]:                                   120.000000
 CELL| Numerically orthorhombic:                                              NO
 CELL| Periodicity                                                            XY

 CELL_REF| Volume [angstrom^3]:                                       131.694613
 CELL_REF| Vector a [angstrom     3.184     0.000     0.000   |a| =     3.184000
 CELL_REF| Vector b [angstrom    -1.592     2.757     0.000   |b| =     3.184000
 CELL_REF| Vector c [angstrom     0.000     0.000    15.000   |c| =    15.000000
 CELL_REF| Angle (b,c), alpha [degree]:                                90.000000
 CELL_REF| Angle (a,c), beta  [degree]:                                90.000000
 CELL_REF| Angle (a,b), gamma [degree]:                               120.000000
 CELL_REF| Numerically orthorhombic:                                          NO
 CELL_REF| Periodicity                                                        XY

 *******************************************************************************
                                    Kpoints
 *******************************************************************************
 BRILLOUIN| K-point scheme                                        Monkhorst-Pack
 BRILLOUIN| K-Point grid                                            40   40    1
 BRILLOUIN| Accuracy in Symmetry determination                      0.100000E-05
 BRILLOUIN| K-Point point group symmetrization                               OFF
 BRILLOUIN| Wavefunction type                                            COMPLEX
 BRILLOUIN| List of Kpoints [2 Pi/Bohr]                                      800
 BRILLOUIN| Number           Weight            X              Y              Z
 BRILLOUIN|     1           0.00125       -0.48750       -0.48750        0.00000
 BRILLOUIN|     2           0.00125       -0.48750       -0.46250        0.00000
 BRILLOUIN|     3           0.00125       -0.48750       -0.43750        0.00000
 BRILLOUIN|     4           0.00125       -0.48750       -0.41250        0.00000
 BRILLOUIN|     5           0.00125       -0.48750       -0.38750        0.00000
 BRILLOUIN|     6           0.00125       -0.48750       -0.36250        0.00000
 BRILLOUIN|     7           0.00125       -0.48750       -0.33750        0.00000
 BRILLOUIN|     8           0.00125       -0.48750       -0.31250        0.00000
 BRILLOUIN|     9           0.00125       -0.48750       -0.28750        0.00000
 BRILLOUIN|    10           0.00125       -0.48750       -0.26250        0.00000
 BRILLOUIN|    11           0.00125       -0.48750       -0.23750        0.00000
 BRILLOUIN|    12           0.00125       -0.48750       -0.21250        0.00000
 BRILLOUIN|    13           0.00125       -0.48750       -0.18750        0.00000
 BRILLOUIN|    14           0.00125       -0.48750       -0.16250        0.00000
 BRILLOUIN|    15           0.00125       -0.48750       -0.13750        0.00000
 BRILLOUIN|    16           0.00125       -0.48750       -0.11250        0.00000
 BRILLOUIN|    17           0.00125       -0.48750       -0.08750        0.00000
 BRILLOUIN|    18           0.00125       -0.48750       -0.06250        0.00000
 BRILLOUIN|    19           0.00125       -0.48750       -0.03750        0.00000
 BRILLOUIN|    20           0.00125       -0.48750       -0.01250        0.00000
 BRILLOUIN|    21           0.00125       -0.48750        0.01250        0.00000
 BRILLOUIN|    22           0.00125       -0.48750        0.03750        0.00000
 BRILLOUIN|    23           0.00125       -0.48750        0.06250        0.00000
 BRILLOUIN|    24           0.00125       -0.48750        0.08750        0.00000
 BRILLOUIN|    25           0.00125       -0.48750        0.11250        0.00000
 BRILLOUIN|    26           0.00125       -0.48750        0.13750        0.00000
 BRILLOUIN|    27           0.00125       -0.48750        0.16250        0.00000
 BRILLOUIN|    28           0.00125       -0.48750        0.18750        0.00000
 BRILLOUIN|    29           0.00125       -0.48750        0.21250        0.00000
 BRILLOUIN|    30           0.00125       -0.48750        0.23750        0.00000
 BRILLOUIN|    31           0.00125       -0.48750        0.26250        0.00000
 BRILLOUIN|    32           0.00125       -0.48750        0.28750        0.00000
 BRILLOUIN|    33           0.00125       -0.48750        0.31250        0.00000
 BRILLOUIN|    34           0.00125       -0.48750        0.33750        0.00000
 BRILLOUIN|    35           0.00125       -0.48750        0.36250        0.00000
 BRILLOUIN|    36           0.00125       -0.48750        0.38750        0.00000
 BRILLOUIN|    37           0.00125       -0.48750        0.41250        0.00000
 BRILLOUIN|    38           0.00125       -0.48750        0.43750        0.00000
 BRILLOUIN|    39           0.00125       -0.48750        0.46250        0.00000
 BRILLOUIN|    40           0.00125       -0.48750        0.48750        0.00000
 BRILLOUIN|    41           0.00125       -0.46250       -0.48750        0.00000
 BRILLOUIN|    42           0.00125       -0.46250       -0.46250        0.00000
 BRILLOUIN|    43           0.00125       -0.46250       -0.43750        0.00000
 BRILLOUIN|    44           0.00125       -0.46250       -0.41250        0.00000
 BRILLOUIN|    45           0.00125       -0.46250       -0.38750        0.00000
 BRILLOUIN|    46           0.00125       -0.46250       -0.36250        0.00000
 BRILLOUIN|    47           0.00125       -0.46250       -0.33750        0.00000
 BRILLOUIN|    48           0.00125       -0.46250       -0.31250        0.00000
 BRILLOUIN|    49           0.00125       -0.46250       -0.28750        0.00000
 BRILLOUIN|    50           0.00125       -0.46250       -0.26250        0.00000
 BRILLOUIN|    51           0.00125       -0.46250       -0.23750        0.00000
 BRILLOUIN|    52           0.00125       -0.46250       -0.21250        0.00000
 BRILLOUIN|    53           0.00125       -0.46250       -0.18750        0.00000
 BRILLOUIN|    54           0.00125       -0.46250       -0.16250        0.00000
 BRILLOUIN|    55           0.00125       -0.46250       -0.13750        0.00000
 BRILLOUIN|    56           0.00125       -0.46250       -0.11250        0.00000
 BRILLOUIN|    57           0.00125       -0.46250       -0.08750        0.00000
 BRILLOUIN|    58           0.00125       -0.46250       -0.06250        0.00000
 BRILLOUIN|    59           0.00125       -0.46250       -0.03750        0.00000
 BRILLOUIN|    60           0.00125       -0.46250       -0.01250        0.00000
 BRILLOUIN|    61           0.00125       -0.46250        0.01250        0.00000
 BRILLOUIN|    62           0.00125       -0.46250        0.03750        0.00000
 BRILLOUIN|    63           0.00125       -0.46250        0.06250        0.00000
 BRILLOUIN|    64           0.00125       -0.46250        0.08750        0.00000
 BRILLOUIN|    65           0.00125       -0.46250        0.11250        0.00000
 BRILLOUIN|    66           0.00125       -0.46250        0.13750        0.00000
 BRILLOUIN|    67           0.00125       -0.46250        0.16250        0.00000
 BRILLOUIN|    68           0.00125       -0.46250        0.18750        0.00000
 BRILLOUIN|    69           0.00125       -0.46250        0.21250        0.00000
 BRILLOUIN|    70           0.00125       -0.46250        0.23750        0.00000
 BRILLOUIN|    71           0.00125       -0.46250        0.26250        0.00000
 BRILLOUIN|    72           0.00125       -0.46250        0.28750        0.00000
 BRILLOUIN|    73           0.00125       -0.46250        0.31250        0.00000
 BRILLOUIN|    74           0.00125       -0.46250        0.33750        0.00000
 BRILLOUIN|    75           0.00125       -0.46250        0.36250        0.00000
 BRILLOUIN|    76           0.00125       -0.46250        0.38750        0.00000
 BRILLOUIN|    77           0.00125       -0.46250        0.41250        0.00000
 BRILLOUIN|    78           0.00125       -0.46250        0.43750        0.00000
 BRILLOUIN|    79           0.00125       -0.46250        0.46250        0.00000
 BRILLOUIN|    80           0.00125       -0.46250        0.48750        0.00000
 BRILLOUIN|    81           0.00125       -0.43750       -0.48750        0.00000
 BRILLOUIN|    82           0.00125       -0.43750       -0.46250        0.00000
 BRILLOUIN|    83           0.00125       -0.43750       -0.43750        0.00000
 BRILLOUIN|    84           0.00125       -0.43750       -0.41250        0.00000
 BRILLOUIN|    85           0.00125       -0.43750       -0.38750        0.00000
 BRILLOUIN|    86           0.00125       -0.43750       -0.36250        0.00000
 BRILLOUIN|    87           0.00125       -0.43750       -0.33750        0.00000
 BRILLOUIN|    88           0.00125       -0.43750       -0.31250        0.00000
 BRILLOUIN|    89           0.00125       -0.43750       -0.28750        0.00000
 BRILLOUIN|    90           0.00125       -0.43750       -0.26250        0.00000
 BRILLOUIN|    91           0.00125       -0.43750       -0.23750        0.00000
 BRILLOUIN|    92           0.00125       -0.43750       -0.21250        0.00000
 BRILLOUIN|    93           0.00125       -0.43750       -0.18750        0.00000
 BRILLOUIN|    94           0.00125       -0.43750       -0.16250        0.00000
 BRILLOUIN|    95           0.00125       -0.43750       -0.13750        0.00000
 BRILLOUIN|    96           0.00125       -0.43750       -0.11250        0.00000
 BRILLOUIN|    97           0.00125       -0.43750       -0.08750        0.00000
 BRILLOUIN|    98           0.00125       -0.43750       -0.06250        0.00000
 BRILLOUIN|    99           0.00125       -0.43750       -0.03750        0.00000
 BRILLOUIN|   100           0.00125       -0.43750       -0.01250        0.00000
 BRILLOUIN|   101           0.00125       -0.43750        0.01250        0.00000
 BRILLOUIN|   102           0.00125       -0.43750        0.03750        0.00000
 BRILLOUIN|   103           0.00125       -0.43750        0.06250        0.00000
 BRILLOUIN|   104           0.00125       -0.43750        0.08750        0.00000
 BRILLOUIN|   105           0.00125       -0.43750        0.11250        0.00000
 BRILLOUIN|   106           0.00125       -0.43750        0.13750        0.00000
 BRILLOUIN|   107           0.00125       -0.43750        0.16250        0.00000
 BRILLOUIN|   108           0.00125       -0.43750        0.18750        0.00000
 BRILLOUIN|   109           0.00125       -0.43750        0.21250        0.00000
 BRILLOUIN|   110           0.00125       -0.43750        0.23750        0.00000
 BRILLOUIN|   111           0.00125       -0.43750        0.26250        0.00000
 BRILLOUIN|   112           0.00125       -0.43750        0.28750        0.00000
 BRILLOUIN|   113           0.00125       -0.43750        0.31250        0.00000
 BRILLOUIN|   114           0.00125       -0.43750        0.33750        0.00000
 BRILLOUIN|   115           0.00125       -0.43750        0.36250        0.00000
 BRILLOUIN|   116           0.00125       -0.43750        0.38750        0.00000
 BRILLOUIN|   117           0.00125       -0.43750        0.41250        0.00000
 BRILLOUIN|   118           0.00125       -0.43750        0.43750        0.00000
 BRILLOUIN|   119           0.00125       -0.43750        0.46250        0.00000
 BRILLOUIN|   120           0.00125       -0.43750        0.48750        0.00000
 BRILLOUIN|   121           0.00125       -0.41250       -0.48750        0.00000
 BRILLOUIN|   122           0.00125       -0.41250       -0.46250        0.00000
 BRILLOUIN|   123           0.00125       -0.41250       -0.43750        0.00000
 BRILLOUIN|   124           0.00125       -0.41250       -0.41250        0.00000
 BRILLOUIN|   125           0.00125       -0.41250       -0.38750        0.00000
 BRILLOUIN|   126           0.00125       -0.41250       -0.36250        0.00000
 BRILLOUIN|   127           0.00125       -0.41250       -0.33750        0.00000
 BRILLOUIN|   128           0.00125       -0.41250       -0.31250        0.00000
 BRILLOUIN|   129           0.00125       -0.41250       -0.28750        0.00000
 BRILLOUIN|   130           0.00125       -0.41250       -0.26250        0.00000
 BRILLOUIN|   131           0.00125       -0.41250       -0.23750        0.00000
 BRILLOUIN|   132           0.00125       -0.41250       -0.21250        0.00000
 BRILLOUIN|   133           0.00125       -0.41250       -0.18750        0.00000
 BRILLOUIN|   134           0.00125       -0.41250       -0.16250        0.00000
 BRILLOUIN|   135           0.00125       -0.41250       -0.13750        0.00000
 BRILLOUIN|   136           0.00125       -0.41250       -0.11250        0.00000
 BRILLOUIN|   137           0.00125       -0.41250       -0.08750        0.00000
 BRILLOUIN|   138           0.00125       -0.41250       -0.06250        0.00000
 BRILLOUIN|   139           0.00125       -0.41250       -0.03750        0.00000
 BRILLOUIN|   140           0.00125       -0.41250       -0.01250        0.00000
 BRILLOUIN|   141           0.00125       -0.41250        0.01250        0.00000
 BRILLOUIN|   142           0.00125       -0.41250        0.03750        0.00000
 BRILLOUIN|   143           0.00125       -0.41250        0.06250        0.00000
 BRILLOUIN|   144           0.00125       -0.41250        0.08750        0.00000
 BRILLOUIN|   145           0.00125       -0.41250        0.11250        0.00000
 BRILLOUIN|   146           0.00125       -0.41250        0.13750        0.00000
 BRILLOUIN|   147           0.00125       -0.41250        0.16250        0.00000
 BRILLOUIN|   148           0.00125       -0.41250        0.18750        0.00000
 BRILLOUIN|   149           0.00125       -0.41250        0.21250        0.00000
 BRILLOUIN|   150           0.00125       -0.41250        0.23750        0.00000
 BRILLOUIN|   151           0.00125       -0.41250        0.26250        0.00000
 BRILLOUIN|   152           0.00125       -0.41250        0.28750        0.00000
 BRILLOUIN|   153           0.00125       -0.41250        0.31250        0.00000
 BRILLOUIN|   154           0.00125       -0.41250        0.33750        0.00000
 BRILLOUIN|   155           0.00125       -0.41250        0.36250        0.00000
 BRILLOUIN|   156           0.00125       -0.41250        0.38750        0.00000
 BRILLOUIN|   157           0.00125       -0.41250        0.41250        0.00000
 BRILLOUIN|   158           0.00125       -0.41250        0.43750        0.00000
 BRILLOUIN|   159           0.00125       -0.41250        0.46250        0.00000
 BRILLOUIN|   160           0.00125       -0.41250        0.48750        0.00000
 BRILLOUIN|   161           0.00125       -0.38750       -0.48750        0.00000
 BRILLOUIN|   162           0.00125       -0.38750       -0.46250        0.00000
 BRILLOUIN|   163           0.00125       -0.38750       -0.43750        0.00000
 BRILLOUIN|   164           0.00125       -0.38750       -0.41250        0.00000
 BRILLOUIN|   165           0.00125       -0.38750       -0.38750        0.00000
 BRILLOUIN|   166           0.00125       -0.38750       -0.36250        0.00000
 BRILLOUIN|   167           0.00125       -0.38750       -0.33750        0.00000
 BRILLOUIN|   168           0.00125       -0.38750       -0.31250        0.00000
 BRILLOUIN|   169           0.00125       -0.38750       -0.28750        0.00000
 BRILLOUIN|   170           0.00125       -0.38750       -0.26250        0.00000
 BRILLOUIN|   171           0.00125       -0.38750       -0.23750        0.00000
 BRILLOUIN|   172           0.00125       -0.38750       -0.21250        0.00000
 BRILLOUIN|   173           0.00125       -0.38750       -0.18750        0.00000
 BRILLOUIN|   174           0.00125       -0.38750       -0.16250        0.00000
 BRILLOUIN|   175           0.00125       -0.38750       -0.13750        0.00000
 BRILLOUIN|   176           0.00125       -0.38750       -0.11250        0.00000
 BRILLOUIN|   177           0.00125       -0.38750       -0.08750        0.00000
 BRILLOUIN|   178           0.00125       -0.38750       -0.06250        0.00000
 BRILLOUIN|   179           0.00125       -0.38750       -0.03750        0.00000
 BRILLOUIN|   180           0.00125       -0.38750       -0.01250        0.00000
 BRILLOUIN|   181           0.00125       -0.38750        0.01250        0.00000
 BRILLOUIN|   182           0.00125       -0.38750        0.03750        0.00000
 BRILLOUIN|   183           0.00125       -0.38750        0.06250        0.00000
 BRILLOUIN|   184           0.00125       -0.38750        0.08750        0.00000
 BRILLOUIN|   185           0.00125       -0.38750        0.11250        0.00000
 BRILLOUIN|   186           0.00125       -0.38750        0.13750        0.00000
 BRILLOUIN|   187           0.00125       -0.38750        0.16250        0.00000
 BRILLOUIN|   188           0.00125       -0.38750        0.18750        0.00000
 BRILLOUIN|   189           0.00125       -0.38750        0.21250        0.00000
 BRILLOUIN|   190           0.00125       -0.38750        0.23750        0.00000
 BRILLOUIN|   191           0.00125       -0.38750        0.26250        0.00000
 BRILLOUIN|   192           0.00125       -0.38750        0.28750        0.00000
 BRILLOUIN|   193           0.00125       -0.38750        0.31250        0.00000
 BRILLOUIN|   194           0.00125       -0.38750        0.33750        0.00000
 BRILLOUIN|   195           0.00125       -0.38750        0.36250        0.00000
 BRILLOUIN|   196           0.00125       -0.38750        0.38750        0.00000
 BRILLOUIN|   197           0.00125       -0.38750        0.41250        0.00000
 BRILLOUIN|   198           0.00125       -0.38750        0.43750        0.00000
 BRILLOUIN|   199           0.00125       -0.38750        0.46250        0.00000
 BRILLOUIN|   200           0.00125       -0.38750        0.48750        0.00000
 BRILLOUIN|   201           0.00125       -0.36250       -0.48750        0.00000
 BRILLOUIN|   202           0.00125       -0.36250       -0.46250        0.00000
 BRILLOUIN|   203           0.00125       -0.36250       -0.43750        0.00000
 BRILLOUIN|   204           0.00125       -0.36250       -0.41250        0.00000
 BRILLOUIN|   205           0.00125       -0.36250       -0.38750        0.00000
 BRILLOUIN|   206           0.00125       -0.36250       -0.36250        0.00000
 BRILLOUIN|   207           0.00125       -0.36250       -0.33750        0.00000
 BRILLOUIN|   208           0.00125       -0.36250       -0.31250        0.00000
 BRILLOUIN|   209           0.00125       -0.36250       -0.28750        0.00000
 BRILLOUIN|   210           0.00125       -0.36250       -0.26250        0.00000
 BRILLOUIN|   211           0.00125       -0.36250       -0.23750        0.00000
 BRILLOUIN|   212           0.00125       -0.36250       -0.21250        0.00000
 BRILLOUIN|   213           0.00125       -0.36250       -0.18750        0.00000
 BRILLOUIN|   214           0.00125       -0.36250       -0.16250        0.00000
 BRILLOUIN|   215           0.00125       -0.36250       -0.13750        0.00000
 BRILLOUIN|   216           0.00125       -0.36250       -0.11250        0.00000
 BRILLOUIN|   217           0.00125       -0.36250       -0.08750        0.00000
 BRILLOUIN|   218           0.00125       -0.36250       -0.06250        0.00000
 BRILLOUIN|   219           0.00125       -0.36250       -0.03750        0.00000
 BRILLOUIN|   220           0.00125       -0.36250       -0.01250        0.00000
 BRILLOUIN|   221           0.00125       -0.36250        0.01250        0.00000
 BRILLOUIN|   222           0.00125       -0.36250        0.03750        0.00000
 BRILLOUIN|   223           0.00125       -0.36250        0.06250        0.00000
 BRILLOUIN|   224           0.00125       -0.36250        0.08750        0.00000
 BRILLOUIN|   225           0.00125       -0.36250        0.11250        0.00000
 BRILLOUIN|   226           0.00125       -0.36250        0.13750        0.00000
 BRILLOUIN|   227           0.00125       -0.36250        0.16250        0.00000
 BRILLOUIN|   228           0.00125       -0.36250        0.18750        0.00000
 BRILLOUIN|   229           0.00125       -0.36250        0.21250        0.00000
 BRILLOUIN|   230           0.00125       -0.36250        0.23750        0.00000
 BRILLOUIN|   231           0.00125       -0.36250        0.26250        0.00000
 BRILLOUIN|   232           0.00125       -0.36250        0.28750        0.00000
 BRILLOUIN|   233           0.00125       -0.36250        0.31250        0.00000
 BRILLOUIN|   234           0.00125       -0.36250        0.33750        0.00000
 BRILLOUIN|   235           0.00125       -0.36250        0.36250        0.00000
 BRILLOUIN|   236           0.00125       -0.36250        0.38750        0.00000
 BRILLOUIN|   237           0.00125       -0.36250        0.41250        0.00000
 BRILLOUIN|   238           0.00125       -0.36250        0.43750        0.00000
 BRILLOUIN|   239           0.00125       -0.36250        0.46250        0.00000
 BRILLOUIN|   240           0.00125       -0.36250        0.48750        0.00000
 BRILLOUIN|   241           0.00125       -0.33750       -0.48750        0.00000
 BRILLOUIN|   242           0.00125       -0.33750       -0.46250        0.00000
 BRILLOUIN|   243           0.00125       -0.33750       -0.43750        0.00000
 BRILLOUIN|   244           0.00125       -0.33750       -0.41250        0.00000
 BRILLOUIN|   245           0.00125       -0.33750       -0.38750        0.00000
 BRILLOUIN|   246           0.00125       -0.33750       -0.36250        0.00000
 BRILLOUIN|   247           0.00125       -0.33750       -0.33750        0.00000
 BRILLOUIN|   248           0.00125       -0.33750       -0.31250        0.00000
 BRILLOUIN|   249           0.00125       -0.33750       -0.28750        0.00000
 BRILLOUIN|   250           0.00125       -0.33750       -0.26250        0.00000
 BRILLOUIN|   251           0.00125       -0.33750       -0.23750        0.00000
 BRILLOUIN|   252           0.00125       -0.33750       -0.21250        0.00000
 BRILLOUIN|   253           0.00125       -0.33750       -0.18750        0.00000
 BRILLOUIN|   254           0.00125       -0.33750       -0.16250        0.00000
 BRILLOUIN|   255           0.00125       -0.33750       -0.13750        0.00000
 BRILLOUIN|   256           0.00125       -0.33750       -0.11250        0.00000
 BRILLOUIN|   257           0.00125       -0.33750       -0.08750        0.00000
 BRILLOUIN|   258           0.00125       -0.33750       -0.06250        0.00000
 BRILLOUIN|   259           0.00125       -0.33750       -0.03750        0.00000
 BRILLOUIN|   260           0.00125       -0.33750       -0.01250        0.00000
 BRILLOUIN|   261           0.00125       -0.33750        0.01250        0.00000
 BRILLOUIN|   262           0.00125       -0.33750        0.03750        0.00000
 BRILLOUIN|   263           0.00125       -0.33750        0.06250        0.00000
 BRILLOUIN|   264           0.00125       -0.33750        0.08750        0.00000
 BRILLOUIN|   265           0.00125       -0.33750        0.11250        0.00000
 BRILLOUIN|   266           0.00125       -0.33750        0.13750        0.00000
 BRILLOUIN|   267           0.00125       -0.33750        0.16250        0.00000
 BRILLOUIN|   268           0.00125       -0.33750        0.18750        0.00000
 BRILLOUIN|   269           0.00125       -0.33750        0.21250        0.00000
 BRILLOUIN|   270           0.00125       -0.33750        0.23750        0.00000
 BRILLOUIN|   271           0.00125       -0.33750        0.26250        0.00000
 BRILLOUIN|   272           0.00125       -0.33750        0.28750        0.00000
 BRILLOUIN|   273           0.00125       -0.33750        0.31250        0.00000
 BRILLOUIN|   274           0.00125       -0.33750        0.33750        0.00000
 BRILLOUIN|   275           0.00125       -0.33750        0.36250        0.00000
 BRILLOUIN|   276           0.00125       -0.33750        0.38750        0.00000
 BRILLOUIN|   277           0.00125       -0.33750        0.41250        0.00000
 BRILLOUIN|   278           0.00125       -0.33750        0.43750        0.00000
 BRILLOUIN|   279           0.00125       -0.33750        0.46250        0.00000
 BRILLOUIN|   280           0.00125       -0.33750        0.48750        0.00000
 BRILLOUIN|   281           0.00125       -0.31250       -0.48750        0.00000
 BRILLOUIN|   282           0.00125       -0.31250       -0.46250        0.00000
 BRILLOUIN|   283           0.00125       -0.31250       -0.43750        0.00000
 BRILLOUIN|   284           0.00125       -0.31250       -0.41250        0.00000
 BRILLOUIN|   285           0.00125       -0.31250       -0.38750        0.00000
 BRILLOUIN|   286           0.00125       -0.31250       -0.36250        0.00000
 BRILLOUIN|   287           0.00125       -0.31250       -0.33750        0.00000
 BRILLOUIN|   288           0.00125       -0.31250       -0.31250        0.00000
 BRILLOUIN|   289           0.00125       -0.31250       -0.28750        0.00000
 BRILLOUIN|   290           0.00125       -0.31250       -0.26250        0.00000
 BRILLOUIN|   291           0.00125       -0.31250       -0.23750        0.00000
 BRILLOUIN|   292           0.00125       -0.31250       -0.21250        0.00000
 BRILLOUIN|   293           0.00125       -0.31250       -0.18750        0.00000
 BRILLOUIN|   294           0.00125       -0.31250       -0.16250        0.00000
 BRILLOUIN|   295           0.00125       -0.31250       -0.13750        0.00000
 BRILLOUIN|   296           0.00125       -0.31250       -0.11250        0.00000
 BRILLOUIN|   297           0.00125       -0.31250       -0.08750        0.00000
 BRILLOUIN|   298           0.00125       -0.31250       -0.06250        0.00000
 BRILLOUIN|   299           0.00125       -0.31250       -0.03750        0.00000
 BRILLOUIN|   300           0.00125       -0.31250       -0.01250        0.00000
 BRILLOUIN|   301           0.00125       -0.31250        0.01250        0.00000
 BRILLOUIN|   302           0.00125       -0.31250        0.03750        0.00000
 BRILLOUIN|   303           0.00125       -0.31250        0.06250        0.00000
 BRILLOUIN|   304           0.00125       -0.31250        0.08750        0.00000
 BRILLOUIN|   305           0.00125       -0.31250        0.11250        0.00000
 BRILLOUIN|   306           0.00125       -0.31250        0.13750        0.00000
 BRILLOUIN|   307           0.00125       -0.31250        0.16250        0.00000
 BRILLOUIN|   308           0.00125       -0.31250        0.18750        0.00000
 BRILLOUIN|   309           0.00125       -0.31250        0.21250        0.00000
 BRILLOUIN|   310           0.00125       -0.31250        0.23750        0.00000
 BRILLOUIN|   311           0.00125       -0.31250        0.26250        0.00000
 BRILLOUIN|   312           0.00125       -0.31250        0.28750        0.00000
 BRILLOUIN|   313           0.00125       -0.31250        0.31250        0.00000
 BRILLOUIN|   314           0.00125       -0.31250        0.33750        0.00000
 BRILLOUIN|   315           0.00125       -0.31250        0.36250        0.00000
 BRILLOUIN|   316           0.00125       -0.31250        0.38750        0.00000
 BRILLOUIN|   317           0.00125       -0.31250        0.41250        0.00000
 BRILLOUIN|   318           0.00125       -0.31250        0.43750        0.00000
 BRILLOUIN|   319           0.00125       -0.31250        0.46250        0.00000
 BRILLOUIN|   320           0.00125       -0.31250        0.48750        0.00000
 BRILLOUIN|   321           0.00125       -0.28750       -0.48750        0.00000
 BRILLOUIN|   322           0.00125       -0.28750       -0.46250        0.00000
 BRILLOUIN|   323           0.00125       -0.28750       -0.43750        0.00000
 BRILLOUIN|   324           0.00125       -0.28750       -0.41250        0.00000
 BRILLOUIN|   325           0.00125       -0.28750       -0.38750        0.00000
 BRILLOUIN|   326           0.00125       -0.28750       -0.36250        0.00000
 BRILLOUIN|   327           0.00125       -0.28750       -0.33750        0.00000
 BRILLOUIN|   328           0.00125       -0.28750       -0.31250        0.00000
 BRILLOUIN|   329           0.00125       -0.28750       -0.28750        0.00000
 BRILLOUIN|   330           0.00125       -0.28750       -0.26250        0.00000
 BRILLOUIN|   331           0.00125       -0.28750       -0.23750        0.00000
 BRILLOUIN|   332           0.00125       -0.28750       -0.21250        0.00000
 BRILLOUIN|   333           0.00125       -0.28750       -0.18750        0.00000
 BRILLOUIN|   334           0.00125       -0.28750       -0.16250        0.00000
 BRILLOUIN|   335           0.00125       -0.28750       -0.13750        0.00000
 BRILLOUIN|   336           0.00125       -0.28750       -0.11250        0.00000
 BRILLOUIN|   337           0.00125       -0.28750       -0.08750        0.00000
 BRILLOUIN|   338           0.00125       -0.28750       -0.06250        0.00000
 BRILLOUIN|   339           0.00125       -0.28750       -0.03750        0.00000
 BRILLOUIN|   340           0.00125       -0.28750       -0.01250        0.00000
 BRILLOUIN|   341           0.00125       -0.28750        0.01250        0.00000
 BRILLOUIN|   342           0.00125       -0.28750        0.03750        0.00000
 BRILLOUIN|   343           0.00125       -0.28750        0.06250        0.00000
 BRILLOUIN|   344           0.00125       -0.28750        0.08750        0.00000
 BRILLOUIN|   345           0.00125       -0.28750        0.11250        0.00000
 BRILLOUIN|   346           0.00125       -0.28750        0.13750        0.00000
 BRILLOUIN|   347           0.00125       -0.28750        0.16250        0.00000
 BRILLOUIN|   348           0.00125       -0.28750        0.18750        0.00000
 BRILLOUIN|   349           0.00125       -0.28750        0.21250        0.00000
 BRILLOUIN|   350           0.00125       -0.28750        0.23750        0.00000
 BRILLOUIN|   351           0.00125       -0.28750        0.26250        0.00000
 BRILLOUIN|   352           0.00125       -0.28750        0.28750        0.00000
 BRILLOUIN|   353           0.00125       -0.28750        0.31250        0.00000
 BRILLOUIN|   354           0.00125       -0.28750        0.33750        0.00000
 BRILLOUIN|   355           0.00125       -0.28750        0.36250        0.00000
 BRILLOUIN|   356           0.00125       -0.28750        0.38750        0.00000
 BRILLOUIN|   357           0.00125       -0.28750        0.41250        0.00000
 BRILLOUIN|   358           0.00125       -0.28750        0.43750        0.00000
 BRILLOUIN|   359           0.00125       -0.28750        0.46250        0.00000
 BRILLOUIN|   360           0.00125       -0.28750        0.48750        0.00000
 BRILLOUIN|   361           0.00125       -0.26250       -0.48750        0.00000
 BRILLOUIN|   362           0.00125       -0.26250       -0.46250        0.00000
 BRILLOUIN|   363           0.00125       -0.26250       -0.43750        0.00000
 BRILLOUIN|   364           0.00125       -0.26250       -0.41250        0.00000
 BRILLOUIN|   365           0.00125       -0.26250       -0.38750        0.00000
 BRILLOUIN|   366           0.00125       -0.26250       -0.36250        0.00000
 BRILLOUIN|   367           0.00125       -0.26250       -0.33750        0.00000
 BRILLOUIN|   368           0.00125       -0.26250       -0.31250        0.00000
 BRILLOUIN|   369           0.00125       -0.26250       -0.28750        0.00000
 BRILLOUIN|   370           0.00125       -0.26250       -0.26250        0.00000
 BRILLOUIN|   371           0.00125       -0.26250       -0.23750        0.00000
 BRILLOUIN|   372           0.00125       -0.26250       -0.21250        0.00000
 BRILLOUIN|   373           0.00125       -0.26250       -0.18750        0.00000
 BRILLOUIN|   374           0.00125       -0.26250       -0.16250        0.00000
 BRILLOUIN|   375           0.00125       -0.26250       -0.13750        0.00000
 BRILLOUIN|   376           0.00125       -0.26250       -0.11250        0.00000
 BRILLOUIN|   377           0.00125       -0.26250       -0.08750        0.00000
 BRILLOUIN|   378           0.00125       -0.26250       -0.06250        0.00000
 BRILLOUIN|   379           0.00125       -0.26250       -0.03750        0.00000
 BRILLOUIN|   380           0.00125       -0.26250       -0.01250        0.00000
 BRILLOUIN|   381           0.00125       -0.26250        0.01250        0.00000
 BRILLOUIN|   382           0.00125       -0.26250        0.03750        0.00000
 BRILLOUIN|   383           0.00125       -0.26250        0.06250        0.00000
 BRILLOUIN|   384           0.00125       -0.26250        0.08750        0.00000
 BRILLOUIN|   385           0.00125       -0.26250        0.11250        0.00000
 BRILLOUIN|   386           0.00125       -0.26250        0.13750        0.00000
 BRILLOUIN|   387           0.00125       -0.26250        0.16250        0.00000
 BRILLOUIN|   388           0.00125       -0.26250        0.18750        0.00000
 BRILLOUIN|   389           0.00125       -0.26250        0.21250        0.00000
 BRILLOUIN|   390           0.00125       -0.26250        0.23750        0.00000
 BRILLOUIN|   391           0.00125       -0.26250        0.26250        0.00000
 BRILLOUIN|   392           0.00125       -0.26250        0.28750        0.00000
 BRILLOUIN|   393           0.00125       -0.26250        0.31250        0.00000
 BRILLOUIN|   394           0.00125       -0.26250        0.33750        0.00000
 BRILLOUIN|   395           0.00125       -0.26250        0.36250        0.00000
 BRILLOUIN|   396           0.00125       -0.26250        0.38750        0.00000
 BRILLOUIN|   397           0.00125       -0.26250        0.41250        0.00000
 BRILLOUIN|   398           0.00125       -0.26250        0.43750        0.00000
 BRILLOUIN|   399           0.00125       -0.26250        0.46250        0.00000
 BRILLOUIN|   400           0.00125       -0.26250        0.48750        0.00000
 BRILLOUIN|   401           0.00125       -0.23750       -0.48750        0.00000
 BRILLOUIN|   402           0.00125       -0.23750       -0.46250        0.00000
 BRILLOUIN|   403           0.00125       -0.23750       -0.43750        0.00000
 BRILLOUIN|   404           0.00125       -0.23750       -0.41250        0.00000
 BRILLOUIN|   405           0.00125       -0.23750       -0.38750        0.00000
 BRILLOUIN|   406           0.00125       -0.23750       -0.36250        0.00000
 BRILLOUIN|   407           0.00125       -0.23750       -0.33750        0.00000
 BRILLOUIN|   408           0.00125       -0.23750       -0.31250        0.00000
 BRILLOUIN|   409           0.00125       -0.23750       -0.28750        0.00000
 BRILLOUIN|   410           0.00125       -0.23750       -0.26250        0.00000
 BRILLOUIN|   411           0.00125       -0.23750       -0.23750        0.00000
 BRILLOUIN|   412           0.00125       -0.23750       -0.21250        0.00000
 BRILLOUIN|   413           0.00125       -0.23750       -0.18750        0.00000
 BRILLOUIN|   414           0.00125       -0.23750       -0.16250        0.00000
 BRILLOUIN|   415           0.00125       -0.23750       -0.13750        0.00000
 BRILLOUIN|   416           0.00125       -0.23750       -0.11250        0.00000
 BRILLOUIN|   417           0.00125       -0.23750       -0.08750        0.00000
 BRILLOUIN|   418           0.00125       -0.23750       -0.06250        0.00000
 BRILLOUIN|   419           0.00125       -0.23750       -0.03750        0.00000
 BRILLOUIN|   420           0.00125       -0.23750       -0.01250        0.00000
 BRILLOUIN|   421           0.00125       -0.23750        0.01250        0.00000
 BRILLOUIN|   422           0.00125       -0.23750        0.03750        0.00000
 BRILLOUIN|   423           0.00125       -0.23750        0.06250        0.00000
 BRILLOUIN|   424           0.00125       -0.23750        0.08750        0.00000
 BRILLOUIN|   425           0.00125       -0.23750        0.11250        0.00000
 BRILLOUIN|   426           0.00125       -0.23750        0.13750        0.00000
 BRILLOUIN|   427           0.00125       -0.23750        0.16250        0.00000
 BRILLOUIN|   428           0.00125       -0.23750        0.18750        0.00000
 BRILLOUIN|   429           0.00125       -0.23750        0.21250        0.00000
 BRILLOUIN|   430           0.00125       -0.23750        0.23750        0.00000
 BRILLOUIN|   431           0.00125       -0.23750        0.26250        0.00000
 BRILLOUIN|   432           0.00125       -0.23750        0.28750        0.00000
 BRILLOUIN|   433           0.00125       -0.23750        0.31250        0.00000
 BRILLOUIN|   434           0.00125       -0.23750        0.33750        0.00000
 BRILLOUIN|   435           0.00125       -0.23750        0.36250        0.00000
 BRILLOUIN|   436           0.00125       -0.23750        0.38750        0.00000
 BRILLOUIN|   437           0.00125       -0.23750        0.41250        0.00000
 BRILLOUIN|   438           0.00125       -0.23750        0.43750        0.00000
 BRILLOUIN|   439           0.00125       -0.23750        0.46250        0.00000
 BRILLOUIN|   440           0.00125       -0.23750        0.48750        0.00000
 BRILLOUIN|   441           0.00125       -0.21250       -0.48750        0.00000
 BRILLOUIN|   442           0.00125       -0.21250       -0.46250        0.00000
 BRILLOUIN|   443           0.00125       -0.21250       -0.43750        0.00000
 BRILLOUIN|   444           0.00125       -0.21250       -0.41250        0.00000
 BRILLOUIN|   445           0.00125       -0.21250       -0.38750        0.00000
 BRILLOUIN|   446           0.00125       -0.21250       -0.36250        0.00000
 BRILLOUIN|   447           0.00125       -0.21250       -0.33750        0.00000
 BRILLOUIN|   448           0.00125       -0.21250       -0.31250        0.00000
 BRILLOUIN|   449           0.00125       -0.21250       -0.28750        0.00000
 BRILLOUIN|   450           0.00125       -0.21250       -0.26250        0.00000
 BRILLOUIN|   451           0.00125       -0.21250       -0.23750        0.00000
 BRILLOUIN|   452           0.00125       -0.21250       -0.21250        0.00000
 BRILLOUIN|   453           0.00125       -0.21250       -0.18750        0.00000
 BRILLOUIN|   454           0.00125       -0.21250       -0.16250        0.00000
 BRILLOUIN|   455           0.00125       -0.21250       -0.13750        0.00000
 BRILLOUIN|   456           0.00125       -0.21250       -0.11250        0.00000
 BRILLOUIN|   457           0.00125       -0.21250       -0.08750        0.00000
 BRILLOUIN|   458           0.00125       -0.21250       -0.06250        0.00000
 BRILLOUIN|   459           0.00125       -0.21250       -0.03750        0.00000
 BRILLOUIN|   460           0.00125       -0.21250       -0.01250        0.00000
 BRILLOUIN|   461           0.00125       -0.21250        0.01250        0.00000
 BRILLOUIN|   462           0.00125       -0.21250        0.03750        0.00000
 BRILLOUIN|   463           0.00125       -0.21250        0.06250        0.00000
 BRILLOUIN|   464           0.00125       -0.21250        0.08750        0.00000
 BRILLOUIN|   465           0.00125       -0.21250        0.11250        0.00000
 BRILLOUIN|   466           0.00125       -0.21250        0.13750        0.00000
 BRILLOUIN|   467           0.00125       -0.21250        0.16250        0.00000
 BRILLOUIN|   468           0.00125       -0.21250        0.18750        0.00000
 BRILLOUIN|   469           0.00125       -0.21250        0.21250        0.00000
 BRILLOUIN|   470           0.00125       -0.21250        0.23750        0.00000
 BRILLOUIN|   471           0.00125       -0.21250        0.26250        0.00000
 BRILLOUIN|   472           0.00125       -0.21250        0.28750        0.00000
 BRILLOUIN|   473           0.00125       -0.21250        0.31250        0.00000
 BRILLOUIN|   474           0.00125       -0.21250        0.33750        0.00000
 BRILLOUIN|   475           0.00125       -0.21250        0.36250        0.00000
 BRILLOUIN|   476           0.00125       -0.21250        0.38750        0.00000
 BRILLOUIN|   477           0.00125       -0.21250        0.41250        0.00000
 BRILLOUIN|   478           0.00125       -0.21250        0.43750        0.00000
 BRILLOUIN|   479           0.00125       -0.21250        0.46250        0.00000
 BRILLOUIN|   480           0.00125       -0.21250        0.48750        0.00000
 BRILLOUIN|   481           0.00125       -0.18750       -0.48750        0.00000
 BRILLOUIN|   482           0.00125       -0.18750       -0.46250        0.00000
 BRILLOUIN|   483           0.00125       -0.18750       -0.43750        0.00000
 BRILLOUIN|   484           0.00125       -0.18750       -0.41250        0.00000
 BRILLOUIN|   485           0.00125       -0.18750       -0.38750        0.00000
 BRILLOUIN|   486           0.00125       -0.18750       -0.36250        0.00000
 BRILLOUIN|   487           0.00125       -0.18750       -0.33750        0.00000
 BRILLOUIN|   488           0.00125       -0.18750       -0.31250        0.00000
 BRILLOUIN|   489           0.00125       -0.18750       -0.28750        0.00000
 BRILLOUIN|   490           0.00125       -0.18750       -0.26250        0.00000
 BRILLOUIN|   491           0.00125       -0.18750       -0.23750        0.00000
 BRILLOUIN|   492           0.00125       -0.18750       -0.21250        0.00000
 BRILLOUIN|   493           0.00125       -0.18750       -0.18750        0.00000
 BRILLOUIN|   494           0.00125       -0.18750       -0.16250        0.00000
 BRILLOUIN|   495           0.00125       -0.18750       -0.13750        0.00000
 BRILLOUIN|   496           0.00125       -0.18750       -0.11250        0.00000
 BRILLOUIN|   497           0.00125       -0.18750       -0.08750        0.00000
 BRILLOUIN|   498           0.00125       -0.18750       -0.06250        0.00000
 BRILLOUIN|   499           0.00125       -0.18750       -0.03750        0.00000
 BRILLOUIN|   500           0.00125       -0.18750       -0.01250        0.00000
 BRILLOUIN|   501           0.00125       -0.18750        0.01250        0.00000
 BRILLOUIN|   502           0.00125       -0.18750        0.03750        0.00000
 BRILLOUIN|   503           0.00125       -0.18750        0.06250        0.00000
 BRILLOUIN|   504           0.00125       -0.18750        0.08750        0.00000
 BRILLOUIN|   505           0.00125       -0.18750        0.11250        0.00000
 BRILLOUIN|   506           0.00125       -0.18750        0.13750        0.00000
 BRILLOUIN|   507           0.00125       -0.18750        0.16250        0.00000
 BRILLOUIN|   508           0.00125       -0.18750        0.18750        0.00000
 BRILLOUIN|   509           0.00125       -0.18750        0.21250        0.00000
 BRILLOUIN|   510           0.00125       -0.18750        0.23750        0.00000
 BRILLOUIN|   511           0.00125       -0.18750        0.26250        0.00000
 BRILLOUIN|   512           0.00125       -0.18750        0.28750        0.00000
 BRILLOUIN|   513           0.00125       -0.18750        0.31250        0.00000
 BRILLOUIN|   514           0.00125       -0.18750        0.33750        0.00000
 BRILLOUIN|   515           0.00125       -0.18750        0.36250        0.00000
 BRILLOUIN|   516           0.00125       -0.18750        0.38750        0.00000
 BRILLOUIN|   517           0.00125       -0.18750        0.41250        0.00000
 BRILLOUIN|   518           0.00125       -0.18750        0.43750        0.00000
 BRILLOUIN|   519           0.00125       -0.18750        0.46250        0.00000
 BRILLOUIN|   520           0.00125       -0.18750        0.48750        0.00000
 BRILLOUIN|   521           0.00125       -0.16250       -0.48750        0.00000
 BRILLOUIN|   522           0.00125       -0.16250       -0.46250        0.00000
 BRILLOUIN|   523           0.00125       -0.16250       -0.43750        0.00000
 BRILLOUIN|   524           0.00125       -0.16250       -0.41250        0.00000
 BRILLOUIN|   525           0.00125       -0.16250       -0.38750        0.00000
 BRILLOUIN|   526           0.00125       -0.16250       -0.36250        0.00000
 BRILLOUIN|   527           0.00125       -0.16250       -0.33750        0.00000
 BRILLOUIN|   528           0.00125       -0.16250       -0.31250        0.00000
 BRILLOUIN|   529           0.00125       -0.16250       -0.28750        0.00000
 BRILLOUIN|   530           0.00125       -0.16250       -0.26250        0.00000
 BRILLOUIN|   531           0.00125       -0.16250       -0.23750        0.00000
 BRILLOUIN|   532           0.00125       -0.16250       -0.21250        0.00000
 BRILLOUIN|   533           0.00125       -0.16250       -0.18750        0.00000
 BRILLOUIN|   534           0.00125       -0.16250       -0.16250        0.00000
 BRILLOUIN|   535           0.00125       -0.16250       -0.13750        0.00000
 BRILLOUIN|   536           0.00125       -0.16250       -0.11250        0.00000
 BRILLOUIN|   537           0.00125       -0.16250       -0.08750        0.00000
 BRILLOUIN|   538           0.00125       -0.16250       -0.06250        0.00000
 BRILLOUIN|   539           0.00125       -0.16250       -0.03750        0.00000
 BRILLOUIN|   540           0.00125       -0.16250       -0.01250        0.00000
 BRILLOUIN|   541           0.00125       -0.16250        0.01250        0.00000
 BRILLOUIN|   542           0.00125       -0.16250        0.03750        0.00000
 BRILLOUIN|   543           0.00125       -0.16250        0.06250        0.00000
 BRILLOUIN|   544           0.00125       -0.16250        0.08750        0.00000
 BRILLOUIN|   545           0.00125       -0.16250        0.11250        0.00000
 BRILLOUIN|   546           0.00125       -0.16250        0.13750        0.00000
 BRILLOUIN|   547           0.00125       -0.16250        0.16250        0.00000
 BRILLOUIN|   548           0.00125       -0.16250        0.18750        0.00000
 BRILLOUIN|   549           0.00125       -0.16250        0.21250        0.00000
 BRILLOUIN|   550           0.00125       -0.16250        0.23750        0.00000
 BRILLOUIN|   551           0.00125       -0.16250        0.26250        0.00000
 BRILLOUIN|   552           0.00125       -0.16250        0.28750        0.00000
 BRILLOUIN|   553           0.00125       -0.16250        0.31250        0.00000
 BRILLOUIN|   554           0.00125       -0.16250        0.33750        0.00000
 BRILLOUIN|   555           0.00125       -0.16250        0.36250        0.00000
 BRILLOUIN|   556           0.00125       -0.16250        0.38750        0.00000
 BRILLOUIN|   557           0.00125       -0.16250        0.41250        0.00000
 BRILLOUIN|   558           0.00125       -0.16250        0.43750        0.00000
 BRILLOUIN|   559           0.00125       -0.16250        0.46250        0.00000
 BRILLOUIN|   560           0.00125       -0.16250        0.48750        0.00000
 BRILLOUIN|   561           0.00125       -0.13750       -0.48750        0.00000
 BRILLOUIN|   562           0.00125       -0.13750       -0.46250        0.00000
 BRILLOUIN|   563           0.00125       -0.13750       -0.43750        0.00000
 BRILLOUIN|   564           0.00125       -0.13750       -0.41250        0.00000
 BRILLOUIN|   565           0.00125       -0.13750       -0.38750        0.00000
 BRILLOUIN|   566           0.00125       -0.13750       -0.36250        0.00000
 BRILLOUIN|   567           0.00125       -0.13750       -0.33750        0.00000
 BRILLOUIN|   568           0.00125       -0.13750       -0.31250        0.00000
 BRILLOUIN|   569           0.00125       -0.13750       -0.28750        0.00000
 BRILLOUIN|   570           0.00125       -0.13750       -0.26250        0.00000
 BRILLOUIN|   571           0.00125       -0.13750       -0.23750        0.00000
 BRILLOUIN|   572           0.00125       -0.13750       -0.21250        0.00000
 BRILLOUIN|   573           0.00125       -0.13750       -0.18750        0.00000
 BRILLOUIN|   574           0.00125       -0.13750       -0.16250        0.00000
 BRILLOUIN|   575           0.00125       -0.13750       -0.13750        0.00000
 BRILLOUIN|   576           0.00125       -0.13750       -0.11250        0.00000
 BRILLOUIN|   577           0.00125       -0.13750       -0.08750        0.00000
 BRILLOUIN|   578           0.00125       -0.13750       -0.06250        0.00000
 BRILLOUIN|   579           0.00125       -0.13750       -0.03750        0.00000
 BRILLOUIN|   580           0.00125       -0.13750       -0.01250        0.00000
 BRILLOUIN|   581           0.00125       -0.13750        0.01250        0.00000
 BRILLOUIN|   582           0.00125       -0.13750        0.03750        0.00000
 BRILLOUIN|   583           0.00125       -0.13750        0.06250        0.00000
 BRILLOUIN|   584           0.00125       -0.13750        0.08750        0.00000
 BRILLOUIN|   585           0.00125       -0.13750        0.11250        0.00000
 BRILLOUIN|   586           0.00125       -0.13750        0.13750        0.00000
 BRILLOUIN|   587           0.00125       -0.13750        0.16250        0.00000
 BRILLOUIN|   588           0.00125       -0.13750        0.18750        0.00000
 BRILLOUIN|   589           0.00125       -0.13750        0.21250        0.00000
 BRILLOUIN|   590           0.00125       -0.13750        0.23750        0.00000
 BRILLOUIN|   591           0.00125       -0.13750        0.26250        0.00000
 BRILLOUIN|   592           0.00125       -0.13750        0.28750        0.00000
 BRILLOUIN|   593           0.00125       -0.13750        0.31250        0.00000
 BRILLOUIN|   594           0.00125       -0.13750        0.33750        0.00000
 BRILLOUIN|   595           0.00125       -0.13750        0.36250        0.00000
 BRILLOUIN|   596           0.00125       -0.13750        0.38750        0.00000
 BRILLOUIN|   597           0.00125       -0.13750        0.41250        0.00000
 BRILLOUIN|   598           0.00125       -0.13750        0.43750        0.00000
 BRILLOUIN|   599           0.00125       -0.13750        0.46250        0.00000
 BRILLOUIN|   600           0.00125       -0.13750        0.48750        0.00000
 BRILLOUIN|   601           0.00125       -0.11250       -0.48750        0.00000
 BRILLOUIN|   602           0.00125       -0.11250       -0.46250        0.00000
 BRILLOUIN|   603           0.00125       -0.11250       -0.43750        0.00000
 BRILLOUIN|   604           0.00125       -0.11250       -0.41250        0.00000
 BRILLOUIN|   605           0.00125       -0.11250       -0.38750        0.00000
 BRILLOUIN|   606           0.00125       -0.11250       -0.36250        0.00000
 BRILLOUIN|   607           0.00125       -0.11250       -0.33750        0.00000
 BRILLOUIN|   608           0.00125       -0.11250       -0.31250        0.00000
 BRILLOUIN|   609           0.00125       -0.11250       -0.28750        0.00000
 BRILLOUIN|   610           0.00125       -0.11250       -0.26250        0.00000
 BRILLOUIN|   611           0.00125       -0.11250       -0.23750        0.00000
 BRILLOUIN|   612           0.00125       -0.11250       -0.21250        0.00000
 BRILLOUIN|   613           0.00125       -0.11250       -0.18750        0.00000
 BRILLOUIN|   614           0.00125       -0.11250       -0.16250        0.00000
 BRILLOUIN|   615           0.00125       -0.11250       -0.13750        0.00000
 BRILLOUIN|   616           0.00125       -0.11250       -0.11250        0.00000
 BRILLOUIN|   617           0.00125       -0.11250       -0.08750        0.00000
 BRILLOUIN|   618           0.00125       -0.11250       -0.06250        0.00000
 BRILLOUIN|   619           0.00125       -0.11250       -0.03750        0.00000
 BRILLOUIN|   620           0.00125       -0.11250       -0.01250        0.00000
 BRILLOUIN|   621           0.00125       -0.11250        0.01250        0.00000
 BRILLOUIN|   622           0.00125       -0.11250        0.03750        0.00000
 BRILLOUIN|   623           0.00125       -0.11250        0.06250        0.00000
 BRILLOUIN|   624           0.00125       -0.11250        0.08750        0.00000
 BRILLOUIN|   625           0.00125       -0.11250        0.11250        0.00000
 BRILLOUIN|   626           0.00125       -0.11250        0.13750        0.00000
 BRILLOUIN|   627           0.00125       -0.11250        0.16250        0.00000
 BRILLOUIN|   628           0.00125       -0.11250        0.18750        0.00000
 BRILLOUIN|   629           0.00125       -0.11250        0.21250        0.00000
 BRILLOUIN|   630           0.00125       -0.11250        0.23750        0.00000
 BRILLOUIN|   631           0.00125       -0.11250        0.26250        0.00000
 BRILLOUIN|   632           0.00125       -0.11250        0.28750        0.00000
 BRILLOUIN|   633           0.00125       -0.11250        0.31250        0.00000
 BRILLOUIN|   634           0.00125       -0.11250        0.33750        0.00000
 BRILLOUIN|   635           0.00125       -0.11250        0.36250        0.00000
 BRILLOUIN|   636           0.00125       -0.11250        0.38750        0.00000
 BRILLOUIN|   637           0.00125       -0.11250        0.41250        0.00000
 BRILLOUIN|   638           0.00125       -0.11250        0.43750        0.00000
 BRILLOUIN|   639           0.00125       -0.11250        0.46250        0.00000
 BRILLOUIN|   640           0.00125       -0.11250        0.48750        0.00000
 BRILLOUIN|   641           0.00125       -0.08750       -0.48750        0.00000
 BRILLOUIN|   642           0.00125       -0.08750       -0.46250        0.00000
 BRILLOUIN|   643           0.00125       -0.08750       -0.43750        0.00000
 BRILLOUIN|   644           0.00125       -0.08750       -0.41250        0.00000
 BRILLOUIN|   645           0.00125       -0.08750       -0.38750        0.00000
 BRILLOUIN|   646           0.00125       -0.08750       -0.36250        0.00000
 BRILLOUIN|   647           0.00125       -0.08750       -0.33750        0.00000
 BRILLOUIN|   648           0.00125       -0.08750       -0.31250        0.00000
 BRILLOUIN|   649           0.00125       -0.08750       -0.28750        0.00000
 BRILLOUIN|   650           0.00125       -0.08750       -0.26250        0.00000
 BRILLOUIN|   651           0.00125       -0.08750       -0.23750        0.00000
 BRILLOUIN|   652           0.00125       -0.08750       -0.21250        0.00000
 BRILLOUIN|   653           0.00125       -0.08750       -0.18750        0.00000
 BRILLOUIN|   654           0.00125       -0.08750       -0.16250        0.00000
 BRILLOUIN|   655           0.00125       -0.08750       -0.13750        0.00000
 BRILLOUIN|   656           0.00125       -0.08750       -0.11250        0.00000
 BRILLOUIN|   657           0.00125       -0.08750       -0.08750        0.00000
 BRILLOUIN|   658           0.00125       -0.08750       -0.06250        0.00000
 BRILLOUIN|   659           0.00125       -0.08750       -0.03750        0.00000
 BRILLOUIN|   660           0.00125       -0.08750       -0.01250        0.00000
 BRILLOUIN|   661           0.00125       -0.08750        0.01250        0.00000
 BRILLOUIN|   662           0.00125       -0.08750        0.03750        0.00000
 BRILLOUIN|   663           0.00125       -0.08750        0.06250        0.00000
 BRILLOUIN|   664           0.00125       -0.08750        0.08750        0.00000
 BRILLOUIN|   665           0.00125       -0.08750        0.11250        0.00000
 BRILLOUIN|   666           0.00125       -0.08750        0.13750        0.00000
 BRILLOUIN|   667           0.00125       -0.08750        0.16250        0.00000
 BRILLOUIN|   668           0.00125       -0.08750        0.18750        0.00000
 BRILLOUIN|   669           0.00125       -0.08750        0.21250        0.00000
 BRILLOUIN|   670           0.00125       -0.08750        0.23750        0.00000
 BRILLOUIN|   671           0.00125       -0.08750        0.26250        0.00000
 BRILLOUIN|   672           0.00125       -0.08750        0.28750        0.00000
 BRILLOUIN|   673           0.00125       -0.08750        0.31250        0.00000
 BRILLOUIN|   674           0.00125       -0.08750        0.33750        0.00000
 BRILLOUIN|   675           0.00125       -0.08750        0.36250        0.00000
 BRILLOUIN|   676           0.00125       -0.08750        0.38750        0.00000
 BRILLOUIN|   677           0.00125       -0.08750        0.41250        0.00000
 BRILLOUIN|   678           0.00125       -0.08750        0.43750        0.00000
 BRILLOUIN|   679           0.00125       -0.08750        0.46250        0.00000
 BRILLOUIN|   680           0.00125       -0.08750        0.48750        0.00000
 BRILLOUIN|   681           0.00125       -0.06250       -0.48750        0.00000
 BRILLOUIN|   682           0.00125       -0.06250       -0.46250        0.00000
 BRILLOUIN|   683           0.00125       -0.06250       -0.43750        0.00000
 BRILLOUIN|   684           0.00125       -0.06250       -0.41250        0.00000
 BRILLOUIN|   685           0.00125       -0.06250       -0.38750        0.00000
 BRILLOUIN|   686           0.00125       -0.06250       -0.36250        0.00000
 BRILLOUIN|   687           0.00125       -0.06250       -0.33750        0.00000
 BRILLOUIN|   688           0.00125       -0.06250       -0.31250        0.00000
 BRILLOUIN|   689           0.00125       -0.06250       -0.28750        0.00000
 BRILLOUIN|   690           0.00125       -0.06250       -0.26250        0.00000
 BRILLOUIN|   691           0.00125       -0.06250       -0.23750        0.00000
 BRILLOUIN|   692           0.00125       -0.06250       -0.21250        0.00000
 BRILLOUIN|   693           0.00125       -0.06250       -0.18750        0.00000
 BRILLOUIN|   694           0.00125       -0.06250       -0.16250        0.00000
 BRILLOUIN|   695           0.00125       -0.06250       -0.13750        0.00000
 BRILLOUIN|   696           0.00125       -0.06250       -0.11250        0.00000
 BRILLOUIN|   697           0.00125       -0.06250       -0.08750        0.00000
 BRILLOUIN|   698           0.00125       -0.06250       -0.06250        0.00000
 BRILLOUIN|   699           0.00125       -0.06250       -0.03750        0.00000
 BRILLOUIN|   700           0.00125       -0.06250       -0.01250        0.00000
 BRILLOUIN|   701           0.00125       -0.06250        0.01250        0.00000
 BRILLOUIN|   702           0.00125       -0.06250        0.03750        0.00000
 BRILLOUIN|   703           0.00125       -0.06250        0.06250        0.00000
 BRILLOUIN|   704           0.00125       -0.06250        0.08750        0.00000
 BRILLOUIN|   705           0.00125       -0.06250        0.11250        0.00000
 BRILLOUIN|   706           0.00125       -0.06250        0.13750        0.00000
 BRILLOUIN|   707           0.00125       -0.06250        0.16250        0.00000
 BRILLOUIN|   708           0.00125       -0.06250        0.18750        0.00000
 BRILLOUIN|   709           0.00125       -0.06250        0.21250        0.00000
 BRILLOUIN|   710           0.00125       -0.06250        0.23750        0.00000
 BRILLOUIN|   711           0.00125       -0.06250        0.26250        0.00000
 BRILLOUIN|   712           0.00125       -0.06250        0.28750        0.00000
 BRILLOUIN|   713           0.00125       -0.06250        0.31250        0.00000
 BRILLOUIN|   714           0.00125       -0.06250        0.33750        0.00000
 BRILLOUIN|   715           0.00125       -0.06250        0.36250        0.00000
 BRILLOUIN|   716           0.00125       -0.06250        0.38750        0.00000
 BRILLOUIN|   717           0.00125       -0.06250        0.41250        0.00000
 BRILLOUIN|   718           0.00125       -0.06250        0.43750        0.00000
 BRILLOUIN|   719           0.00125       -0.06250        0.46250        0.00000
 BRILLOUIN|   720           0.00125       -0.06250        0.48750        0.00000
 BRILLOUIN|   721           0.00125       -0.03750       -0.48750        0.00000
 BRILLOUIN|   722           0.00125       -0.03750       -0.46250        0.00000
 BRILLOUIN|   723           0.00125       -0.03750       -0.43750        0.00000
 BRILLOUIN|   724           0.00125       -0.03750       -0.41250        0.00000
 BRILLOUIN|   725           0.00125       -0.03750       -0.38750        0.00000
 BRILLOUIN|   726           0.00125       -0.03750       -0.36250        0.00000
 BRILLOUIN|   727           0.00125       -0.03750       -0.33750        0.00000
 BRILLOUIN|   728           0.00125       -0.03750       -0.31250        0.00000
 BRILLOUIN|   729           0.00125       -0.03750       -0.28750        0.00000
 BRILLOUIN|   730           0.00125       -0.03750       -0.26250        0.00000
 BRILLOUIN|   731           0.00125       -0.03750       -0.23750        0.00000
 BRILLOUIN|   732           0.00125       -0.03750       -0.21250        0.00000
 BRILLOUIN|   733           0.00125       -0.03750       -0.18750        0.00000
 BRILLOUIN|   734           0.00125       -0.03750       -0.16250        0.00000
 BRILLOUIN|   735           0.00125       -0.03750       -0.13750        0.00000
 BRILLOUIN|   736           0.00125       -0.03750       -0.11250        0.00000
 BRILLOUIN|   737           0.00125       -0.03750       -0.08750        0.00000
 BRILLOUIN|   738           0.00125       -0.03750       -0.06250        0.00000
 BRILLOUIN|   739           0.00125       -0.03750       -0.03750        0.00000
 BRILLOUIN|   740           0.00125       -0.03750       -0.01250        0.00000
 BRILLOUIN|   741           0.00125       -0.03750        0.01250        0.00000
 BRILLOUIN|   742           0.00125       -0.03750        0.03750        0.00000
 BRILLOUIN|   743           0.00125       -0.03750        0.06250        0.00000
 BRILLOUIN|   744           0.00125       -0.03750        0.08750        0.00000
 BRILLOUIN|   745           0.00125       -0.03750        0.11250        0.00000
 BRILLOUIN|   746           0.00125       -0.03750        0.13750        0.00000
 BRILLOUIN|   747           0.00125       -0.03750        0.16250        0.00000
 BRILLOUIN|   748           0.00125       -0.03750        0.18750        0.00000
 BRILLOUIN|   749           0.00125       -0.03750        0.21250        0.00000
 BRILLOUIN|   750           0.00125       -0.03750        0.23750        0.00000
 BRILLOUIN|   751           0.00125       -0.03750        0.26250        0.00000
 BRILLOUIN|   752           0.00125       -0.03750        0.28750        0.00000
 BRILLOUIN|   753           0.00125       -0.03750        0.31250        0.00000
 BRILLOUIN|   754           0.00125       -0.03750        0.33750        0.00000
 BRILLOUIN|   755           0.00125       -0.03750        0.36250        0.00000
 BRILLOUIN|   756           0.00125       -0.03750        0.38750        0.00000
 BRILLOUIN|   757           0.00125       -0.03750        0.41250        0.00000
 BRILLOUIN|   758           0.00125       -0.03750        0.43750        0.00000
 BRILLOUIN|   759           0.00125       -0.03750        0.46250        0.00000
 BRILLOUIN|   760           0.00125       -0.03750        0.48750        0.00000
 BRILLOUIN|   761           0.00125       -0.01250       -0.48750        0.00000
 BRILLOUIN|   762           0.00125       -0.01250       -0.46250        0.00000
 BRILLOUIN|   763           0.00125       -0.01250       -0.43750        0.00000
 BRILLOUIN|   764           0.00125       -0.01250       -0.41250        0.00000
 BRILLOUIN|   765           0.00125       -0.01250       -0.38750        0.00000
 BRILLOUIN|   766           0.00125       -0.01250       -0.36250        0.00000
 BRILLOUIN|   767           0.00125       -0.01250       -0.33750        0.00000
 BRILLOUIN|   768           0.00125       -0.01250       -0.31250        0.00000
 BRILLOUIN|   769           0.00125       -0.01250       -0.28750        0.00000
 BRILLOUIN|   770           0.00125       -0.01250       -0.26250        0.00000
 BRILLOUIN|   771           0.00125       -0.01250       -0.23750        0.00000
 BRILLOUIN|   772           0.00125       -0.01250       -0.21250        0.00000
 BRILLOUIN|   773           0.00125       -0.01250       -0.18750        0.00000
 BRILLOUIN|   774           0.00125       -0.01250       -0.16250        0.00000
 BRILLOUIN|   775           0.00125       -0.01250       -0.13750        0.00000
 BRILLOUIN|   776           0.00125       -0.01250       -0.11250        0.00000
 BRILLOUIN|   777           0.00125       -0.01250       -0.08750        0.00000
 BRILLOUIN|   778           0.00125       -0.01250       -0.06250        0.00000
 BRILLOUIN|   779           0.00125       -0.01250       -0.03750        0.00000
 BRILLOUIN|   780           0.00125       -0.01250       -0.01250        0.00000
 BRILLOUIN|   781           0.00125       -0.01250        0.01250        0.00000
 BRILLOUIN|   782           0.00125       -0.01250        0.03750        0.00000
 BRILLOUIN|   783           0.00125       -0.01250        0.06250        0.00000
 BRILLOUIN|   784           0.00125       -0.01250        0.08750        0.00000
 BRILLOUIN|   785           0.00125       -0.01250        0.11250        0.00000
 BRILLOUIN|   786           0.00125       -0.01250        0.13750        0.00000
 BRILLOUIN|   787           0.00125       -0.01250        0.16250        0.00000
 BRILLOUIN|   788           0.00125       -0.01250        0.18750        0.00000
 BRILLOUIN|   789           0.00125       -0.01250        0.21250        0.00000
 BRILLOUIN|   790           0.00125       -0.01250        0.23750        0.00000
 BRILLOUIN|   791           0.00125       -0.01250        0.26250        0.00000
 BRILLOUIN|   792           0.00125       -0.01250        0.28750        0.00000
 BRILLOUIN|   793           0.00125       -0.01250        0.31250        0.00000
 BRILLOUIN|   794           0.00125       -0.01250        0.33750        0.00000
 BRILLOUIN|   795           0.00125       -0.01250        0.36250        0.00000
 BRILLOUIN|   796           0.00125       -0.01250        0.38750        0.00000
 BRILLOUIN|   797           0.00125       -0.01250        0.41250        0.00000
 BRILLOUIN|   798           0.00125       -0.01250        0.43750        0.00000
 BRILLOUIN|   799           0.00125       -0.01250        0.46250        0.00000
 BRILLOUIN|   800           0.00125       -0.01250        0.48750        0.00000
 *******************************************************************************

 *******************************************************************************
 *******************************************************************************
 **                                                                           **
 **     #####                         ##              ##                      **
 **    ##   ##            ##          ##              ##                      **
 **   ##     ##                       ##            ######                    **
 **   ##     ##  ##   ##  ##   #####  ##  ##   ####   ##    #####    #####    **
 **   ##     ##  ##   ##  ##  ##      ## ##   ##      ##   ##   ##  ##   ##   **
 **   ##  ## ##  ##   ##  ##  ##      ####     ###    ##   ######   ######    **
 **    ##  ###   ##   ##  ##  ##      ## ##      ##   ##   ##       ##        **
 **     #######   #####   ##   #####  ##  ##  ####    ##    #####   ##        **
 **           ##                                                    ##        **
 **                                                                           **
 **                                                ... make the atoms dance   **
 **                                                                           **
 **            Copyright (C) by CP2K developers group (2000-2025)             **
 **                      J. Chem. Phys. 152, 194103 (2020)                    **
 **                                                                           **
 *******************************************************************************

 DFT| Spin restricted Kohn-Sham (RKS) calculation                            RKS
 DFT| Multiplicity                                                             1
 DFT| Number of spin states                                                    1
 DFT| Charge                                                                   0
 DFT| Self-interaction correction (SIC)                                       NO
 DFT| Cutoffs: density                                              1.000000E-10
 DFT|          gradient                                             1.000000E-10
 DFT|          tau                                                  1.000000E-10
 DFT|          cutoff_smoothing_range                               0.000000E+00
 DFT| XC density smoothing                                                  NONE
 DFT| XC derivatives                                                          PW

 FUNCTIONAL| PBE:
 FUNCTIONAL| J.P.Perdew, K.Burke, M.Ernzerhof, Phys. Rev. Letter, vol. 77, n 18,
 FUNCTIONAL|  pp. 3865-3868, (1996) {spin unpolarized}                          


 QS| Method:                                                                GAPW
 QS| Density plane wave grid type                        NON-SPHERICAL FULLSPACE
 QS| Number of grid levels:                                                    4
 QS| Density cutoff [a.u.]:                                                250.0
 QS| Multi grid cutoff [a.u.]: 1) grid level                               250.0
 QS|                           2) grid level                                83.3
 QS|                           3) grid level                                27.8
 QS|                           4) grid level                                 9.3
 QS| Grid level progression factor:                                          3.0
 QS| Relative density cutoff [a.u.]:                                        50.0
[...]
 Sparse matrix multiplication: The distributed block-compressed sparse row 
 library.
 https://doi.org/10.1016/j.parco.2014.03.012

 A. Marek, V. Blum, R. Johanni, V. Havu, B. Lang, T. Auckenthaler, A. Heinecke, 
 H. Bungartz, H. Lederer.
 J. Phys. Condens. Matter 26, 213201 (2014).
 The ELPA library: scalable parallel eigenvalue solutions for electronic 
 structure theory and computational science.
 https://doi.org/10.1088/0953-8984/26/21/213201

 J. VandeVondele, J. Hutter.
 J. Chem. Phys. 127, 114105 (2007).
 Gaussian basis sets for accurate calculations on molecular systems in gas and 
 condensed phases.
 https://doi.org/10.1063/1.2770708

 M. Krack.
 Theor. Chem. Acc. 114, 145-152 (2005).
 Pseudopotentials for H to Kr optimized for gradient-corrected 
 exchange-correlation functionals.
 https://doi.org/10.1007/s00214-005-0655-y

 M. Frigo, S. G. Johnson.
 Proc. IEEE 93, 216-231 (2005).
 The design and implementation of FFTW3.
 https://doi.org/10.1109/JPROC.2004.840301

 M. Krack, M. Parrinello.
 Phys. Chem. Chem. Phys. 2, 2105-2112 (2000).
 All-electron ab-initio molecular dynamics.
 https://doi.org/10.1039/b001167n

 G. Lippert, J. Hutter, M. Parrinello.
 Theor. Chem. Acc. 103, 124-140 (1999).
 The Gaussian and augmented-plane-wave density functional method for ab initio 
 molecular dynamics simulations.
 https://doi.org/10.1007/s002140050523

 C. Hartwigsen, S. Goedecker, J. Hutter.
 Phys. Rev. B 58, 3641-3662 (1998).
 Relativistic separable dual-space Gaussian pseudopotentials from H to Rn.
 https://doi.org/10.1103/PhysRevB.58.3641

 S. Goedecker, M. Teter, J. Hutter.
 Phys. Rev. B 54, 1703-1710 (1996).
 Separable dual-space Gaussian pseudopotentials.
 https://doi.org/10.1103/PhysRevB.54.1703

 J. P. Perdew, K. Burke, M. Ernzerhof.
 Phys. Rev. Lett. 77, 3865-3868 (1996).
 Generalized gradient approximation made simple.
 https://doi.org/10.1103/PhysRevLett.77.3865


 -------------------------------------------------------------------------------
 -                                                                             -
 -                                T I M I N G                                  -
 -                                                                             -
 -------------------------------------------------------------------------------
 SUBROUTINE                       CALLS  ASD         SELF TIME        TOTAL TIME
                                MAXIMUM       AVERAGE  MAXIMUM  AVERAGE  MAXIMUM
 CP2K                                 1  1.0     0.03     0.05 36720.27 36720.85
 qs_energies                          1  2.0     0.00     0.00 36650.84 36651.42
 qs_energies_properties               1  3.0     0.00     0.00 36446.41 36446.99
 post_scf_bandstructure               1  4.0     0.00     0.00 36446.41 36446.99
 gw                                   1  5.0     0.00     0.00 36350.12 36350.70
 gw_calc_small_cell_full_kp           1  6.0     0.00     0.00 36086.77 36087.35
 compute_W_real_space                 1  7.0     8.92     9.16 25161.42 25161.84
 mp_sum_dm3                        1044  9.0 15670.72 15673.22 15670.72 15673.22
 fm_to_local_array                  934  8.1    51.12    53.03 15646.80 15647.30
 compute_Minv_and_Vsqrt               1  8.0     0.11     0.11  8778.02  8778.18
 build_2c_coulomb_matrix_kp_sma       2  9.0    25.04    49.53  8746.14  8746.28
 dbt_total                      9362025  9.6    16.95    18.20  7781.93  8377.02
 build_2c_coulomb_matrix_kp_sma 1024000 10.0  7828.59  7913.08  7828.59  7913.08
 dbt_contract                   3852278 10.4    33.69    35.81  6880.56  7362.13
 dbt_tas_multiply               4763078 12.9     4.73     5.18  6516.39  7000.80
 dbt_tas_total                  4763078 13.9   173.04   180.94  6513.34  6997.90
 compute_chi                          1  7.0     0.06     0.16  5956.26  5956.40
 compute_Sigma_c                      1  7.0     0.00     0.00  4137.41  4137.72
 dbt_tas_estimate_result_nze    2381539 13.4   365.90   381.73  2526.65  2969.68
 G_times_3c                       22322  8.0    11.14    13.05  2568.50  2894.80
 dbt_tas_dbm                    4763078 14.9     4.18     4.51  2534.09  2662.09
 dbm_multiply                   4763078 16.9  2525.12  2652.91  2525.12  2652.91
 mp_sync                        ******* 12.5  1664.74  2517.09  1664.74  2517.09
 contract_to_Sigma                  202  8.0    24.44    26.62  2014.31  2125.92
 contract_M_occ_vir_to_chi          110  8.0    37.62    42.14  1571.05  2019.74
 contract_W                         105  8.0     8.16     8.72  1761.13  1924.56
 contract_to_Sigma_3c_x_G        936070  9.0     1.28     1.48  1235.45  1344.98
 dbt_copy                       5966070 10.9    24.62    26.91  1053.96  1299.53
 dbm_reserve_blocks             ******* 16.6   927.02  1258.16   927.02  1258.16
 dbt_tas_mm_2                   1461914 16.0     1.41     1.79   888.16  1112.99
 convert_to_new_pgrid           ******* 14.9    26.82    29.08   910.60  1079.84
 dbcsr_complete_redistribute     678761  9.8    10.91    16.84   900.68  1066.51
 G_occ_vir                          121  8.0     0.47     0.53  1038.96  1058.27
 dbm_copy                       9526156 15.9   883.78  1052.72   883.78  1052.72
 fm_to_local_tensor              231192  9.0     2.04     2.17   952.14  1026.23
 dbt_tas_mm_3T                  2263152 16.1     1.42     1.61   920.34   999.31
 mp_alltoall_i22                1225495 10.2   808.92   997.57   808.92   997.57
 dbt_tas_reserve_blocks_index   ******* 15.8    11.92    12.78   637.92   955.06
 dbt_reshape                    4429610 11.8   610.28   740.15   766.25   954.61
 contract_to_Sigma_contract       20134  9.0     9.63    11.29   739.69   834.19
 copy_fm_to_dbcsr                309803  9.5     0.64     0.68   630.29   803.52
 dbt_tas_mm_1N                  1262506 15.5     0.71     0.81   720.52   781.76
 global_matrix_to_local_matrix   231192 10.0     2.33     3.85   265.59   751.60
 reshape_mm_small               4763078 14.9   278.85   289.23   672.97   746.58
 dbt_tas_reserve_blocks_templat 6932727 14.1    11.53    12.62   374.58   649.41
 get_V_tr_R                          34  9.0     0.13     0.14   646.74   646.78
 send_data                       231192 11.0     0.15     0.19   186.62   635.13
 communicate_buffer              231192 12.0     2.04    18.49   186.47   634.94
 compute_Sigma_x                      1  7.0     0.00     0.00   631.94   632.44
 mult_W_with_Minv                    30  8.0     0.70     0.72   627.20   627.21
 get_t_3c_int                   3094249  9.3     8.50     9.10   505.58   618.18
 dbt_tas_reshape                5672174 15.5    26.96    28.75   524.24   610.81
 mp_waitall_1                   1906677 11.4   188.16   583.58   188.16   583.58
 mp_sum_dm                      1024048 10.0   419.97   470.07   419.97   470.07
 copy_dbcsr_to_fm                368958  8.2     1.87     2.01   436.05   466.46
 dbt_tas_replicate              4763078 14.9    78.93    83.46   416.08   463.29
 dbm_add                        4763078 14.9   357.50   449.09   357.50   449.09
 add_rs_to_ikp                  *******  9.9   365.15   375.31   365.15   375.31
 dbt_tas_reshape_buffer_obtain  5672174 16.5    83.97    95.92   275.79   353.33
 local_dbt_to_global_fm              91  8.0     0.22     0.24   351.16   351.16
 trafo_rs_to_ikp                  16806  8.1    10.12    11.45   337.93   347.24
 add_V_L                         512000 10.0     9.98   321.02     9.98   321.02
 add_ikp_to_rs                  ******* -3.6   289.48   312.64   289.48   312.64
 dbt_remap                       467635 11.0    43.33    62.19   257.38   306.69
 dbt_tas_create_split           ******* 15.9     8.25     9.09   282.54   294.69
 dbt_tas_create_split_rows_or_c ******* 16.9    29.86    31.31   274.29   286.00
 reshape_mm_compatible          4763078 14.9    39.39    41.83   264.46   280.11
 add_ikp_to_all_rs                15403  8.0     8.58     9.73   246.99   268.86
 create_and_init_bs_env_for_gw        1  6.0     0.00     0.00   263.35   263.40
 parallel_gemm_cfm               427832  8.9     0.28     0.35   192.53   254.39
 parallel_gemm_cfm_cosma         427832  9.9   192.26   254.14   192.26   254.14
 dbcsr_desymmetrize_deep         546734  8.6     4.24     4.94   202.29   234.55
 dbt_destroy                    ******* 10.8   210.42   219.17   213.63   222.52
 compute_3c_integrals                 1  7.0     0.05     0.05   218.79   218.80
 build_3c_integrals                   1  8.0   141.05   213.53   146.14   218.48
 dbt_tas_distribution_new       ******* 15.6   106.92   111.43   205.99   214.08
 scf_env_do_scf                       1  3.0     0.00     0.00   204.16   204.16
 scf_env_do_scf_inner_loop           49  4.0     0.01     0.01   204.16   204.16
 dbt_tas_reshape_buffer_fill    5672174 16.5   178.47   203.45   178.47   203.45
 compute_QP_energies                  1  7.0     0.13     0.17   199.74   202.05
 trafo_to_k_and_nn               106628  8.0     0.40     0.48   199.42   201.73
 dbt_tas_copy                   2316887 12.3    93.24   114.72   162.38   200.04
 qs_scf_new_mos_kp                   49  5.0     0.00     0.00   193.03   193.04
 do_general_diag_kp                  49  6.0     0.36     0.38   193.03   193.04
 mp_cart_sub                     737995 10.2   191.97   192.06   191.97   192.06
 mp_cart_create                 ******* 16.5   165.42   170.55   179.43   185.17
 change_split                   6235521 15.4    12.98    13.75   173.39   181.44
 local_dbt_to_global_mat         138411  9.0     0.48     0.51    91.81   169.67
 local_matrix_to_global_matrix   138411 10.0     0.25     0.29    65.24   143.65
 fm_add_ikp_to_rs                193600  9.0    88.04    90.56   139.13   142.11
 dbt_reserve_blocks_index       4992085 13.7     4.81     5.59    89.07   142.08
 dbt_reserve_blocks_index_array 4731247 12.8     4.15     4.80    86.58   139.66
 destroy_t_1d                        98  8.0     0.28     0.32   124.27   130.24
 dbt_copy_nocomm                 426045 11.0    67.06   102.92    81.28   126.96
 comm_data                       138411 11.0     0.26     1.33    51.37   119.62
 fm_MWM_R_t_to_local_tensor_W_R      30  8.0     0.03     0.04   119.20   119.22
 mp_waitall_2                    276822 12.0    47.94   117.65    47.94   117.65
 dbt_communicate_buffer         4429610 12.8    79.39   113.31    79.39   113.31
 mp_sum_dv                       117268  8.9    25.79   110.34    25.79   110.34
 mp_comm_dup                    ******* 18.4    87.78    92.79    95.14   100.40
 fm_trafo_rs_to_ikp              106628  9.0    49.37    54.31    86.71    94.71
 power                            31903  8.0     5.46     5.98    89.00    90.79
 dbt_tas_merge                  1461914 15.0    22.95    28.49    58.45    85.97
 diag_complex                     31903  9.0    83.54    84.89    83.54    84.89
 get_Minv_Vtr_Minv_R                  1  8.0     0.03     0.03    74.19    74.21
 bs_env_release                       1  2.0     0.11     0.19    65.73    68.91
 mp_comm_split_direct           ******* 17.9    59.11    61.45    62.77    65.35
 mp_comm_free                   ******* 15.5    59.07    61.77    59.07    61.77
 add_R                          *******  9.3    39.72    42.83    56.63    60.85
 dos_pdos_ldos                        1  5.0     0.01     0.01    60.24    60.26
 dbt_permute_index              ******* 12.1    48.50    53.12    54.77    60.03
 mp_sum_i                       4085180 15.8    58.33    59.74    58.33    59.74
 cp_cfm_heevd                      8217  7.6     0.01     0.01    58.86    59.21
 cp_cfm_heevd_base                 8217  8.6    58.85    59.20    58.85    59.20
 send_sizes_1                    231192 11.0     0.13     0.15    57.35    58.72
 SOC_ev                            3496  6.0     0.04     0.04    55.01    55.06
 reshape_mm_template             935270 15.5    30.15    39.29    45.26    54.68
 get_data                        231192 11.0     4.82    52.35     5.16    52.76
 dbt_tas_create_new             ******* 15.2    48.37    51.95    48.37    51.95
 dbt_align_index                7144617 11.4     7.54     8.14    45.09    48.47
 dbt_distribution_new_expert    1397664 12.2     7.42     8.02    42.91    45.34
 dbt_tas_communicate_buffer     ******* 17.2    28.06    39.84    28.06    39.84
 dbt_tas_reshape_communicate_bu 5672174 16.5     3.47     3.85    26.34    37.49
 dbt_tas_mp_comm                2836087 13.0     4.56     5.19    35.02    37.28
 mp_max_i                       7705021 11.4     5.26    35.04     5.26    35.04
 is_cell_in_index_to_cell       *******  9.7    30.80    33.69    30.80    33.69
 kpoint_density_transform            49  7.0     0.11     0.12    33.65    33.69
 mp_isend_dv                    ******* 12.1     4.19    32.87     4.19    32.87
 dbcsr_finalize                 2770141 11.2     5.77     6.97    26.62    30.64
 rskp_transform                   88888  7.1     0.57    28.99     0.57    28.99
 heuristic_RI_regularization          1  7.0     0.00     0.00    28.25    28.25
 dbt_reserve_blocks_template     426045 12.0     0.90     1.20    14.22    27.83
 create_and_init_bs_env               1  5.0     0.00     0.00    25.24    25.24
 compute_cfm_mo_coeff_kp_and_ei       1  6.0     0.00     0.00    25.23    25.23
 mp_comm_size                   ******* 16.2    23.10    24.78    23.10    24.78
 dbt_create_matrix               231192 10.0     1.30     1.37    23.01    24.44
 mp_cart_get                    ******* 16.0    22.76    24.32    22.76    24.32
 dbt_create_new                  698832 11.7     5.03     5.56    22.84    24.20
 dbm_filter                     7022085 14.8    22.04    23.31    22.04    23.31
 rsmat_to_kp                      10488  7.2     0.07     0.08    22.30    22.47
 cp_fm_start_copy_general        235200  7.3     1.04     1.93    21.25    22.36
 mp_alltoall_d11v               3676485 10.7     5.54    20.15     5.54    20.15
 mp_alltoall_i                  ******* 15.3    18.69    19.30    18.69    19.30
 dbcsr_filter_anytype           1033506 11.0     2.42     2.72    13.84    18.92
 cp_cfm_geeig_canon                1748  7.0     0.01     0.01    18.07    18.12
 mp_allgather_i                  470400  8.3    14.94    17.26    14.94    17.26
 mp_comm_rank                   ******* 16.2    14.23    15.38    14.23    15.38
 dbcsr_merge_all                1040668 11.9    10.17    11.49    13.01    14.94
 dbt_create_3c_R1_R2                 62  8.0     2.86     3.05    14.11    14.77
 transform_dmat                   39200  8.0     0.26    13.74     0.26    13.74
 dbt_pgrid_create_expert        1397667 13.2     1.81     2.05    12.51    13.39
 set_blocks                      138411 11.0     1.45     6.30     4.92    13.29
 dbt_create_template            3892472  9.0    12.14    12.81    12.14    12.81
 mp_alltoall_i11v               2583017 10.5     5.83    12.05     5.83    12.05
 destroy_t_2d                        62  8.0     3.69     4.58    10.58    12.01
 soc                                  1  5.0     0.00     0.00    10.80    10.80
 H_KS_spinor_kp                       1  6.0     0.01     0.01    10.78    10.78
 dbt_nd_mp_comm                  698827 11.7     1.27     1.50     9.74    10.49
 dbt_tas_reshape_get_coord      5672174 16.5     9.39    10.10     9.39    10.10
 dbm_scale                      5607805 14.5     8.67     9.21     8.67     9.21
 send_sizes_2                    231192 11.0     0.14     0.15     7.65     7.93
 dbt_tas_replicate_communicate_ 3521466 15.9     2.11     2.45     5.79     7.93
 dbcsr_work_create              1587402 10.6     4.52     5.36     6.34     7.50
 mp_sum_l                       ******* 15.0     6.81     7.39     6.81     7.39
 trafo_V_xc_R_to_kp                   1  7.0     0.01     0.01     7.31     7.33
 dbt_copy_matrix_to_tensor       231192 10.0     1.57     1.67     6.11     7.10
 mp_isend_im2                   ******* 12.9     0.34     6.83     0.34     6.83
 dbcsr_iterator_start           5864164 11.1     5.35     5.50     6.33     6.63
 dbt_create_2c_R                     98  8.0     5.16     6.03     5.65     6.52
 dbt_tas_reshape_alltoall       5672174 16.5     3.24     3.58     5.76     6.25
 dbcsr_create_new               2197173 10.1     4.46     4.63     5.60     5.82
 qs_ks_update_qs_env                 49  5.0     0.00     0.00     5.80     5.81
 qs_ks_build_kohn_sham_matrix        52  7.1     0.01     0.01     5.80     5.81
 rebuild_ks_matrix                   49  6.0     0.00     0.00     5.42     5.42
 transfer_pw2rs                     261 10.6     0.00     0.00     5.33     5.42
 comm_size                       138411 11.0     0.11     0.12     4.99     5.38
 sum_up_and_integrate                52  8.1     0.00     0.00     0.91     5.37
 integrate_v_rspace                  52  9.1     0.00     0.01     0.91     5.37
 transfer_pw2rs_250                 105 11.0     0.06     0.06     5.14     5.23
 copy_fm_to_dbcsr_bc             309803 10.5     1.43     1.51     4.91     5.22
 dbcsr_work_destroy_all         1587402 11.4     3.15     3.68     4.38     5.14
 fill_buffer                     138411 11.0     2.03     4.91     2.23     5.12
 reserve_blocks                  231192 11.0     0.54     0.61     4.16     5.04
 dbt_reserve_blocks_matrix_to_t  231192 11.0     0.66     0.71     4.04     4.97
 hybrid_alltoall_any             546734  9.6     1.28     1.33     2.07     4.90
 setup_cells_3c                       1  7.0     0.08     0.08     4.77     4.77
 build_2c_integrals                  34 10.0     0.09     2.18     0.23     4.73
 cp_cfm_geeig                      1225  7.0     0.00     0.00     4.32     4.68
 build_3c_integral_block           4271  8.0     1.74     1.93     4.55     4.67
 integrate_vhg0_rspace               52  8.1     0.00     0.00     4.59     4.67
 grid_integrate_task_list            52 10.1     0.08     4.54     0.08     4.54
 mp_bcast_iv                     940867  8.3     3.68     4.49     3.68     4.49
 dbt_distribution_destroy       1397664 12.2     2.94     3.52     3.75     4.47
 qs_rho_update_rho_low               50  5.0     0.00     0.00     4.37     4.37
 calculate_rho_elec                  50  6.0     0.00     0.00     4.37     4.37
 dbcsr_data_release             ******* 12.0     3.58     4.30     3.58     4.30
 compute_proj_mo_on_kind           1748  6.0     0.03     0.03     4.21     4.28
 transfer_rs2pw                     254  8.4     0.00     0.00     4.13     4.21
 density_rs2pw                       50  7.0     0.00     0.00     4.10     4.18
 transfer_rs2pw_250                 104 10.0     0.08     0.09     4.06     4.14
 mp_sendrecv_dv                   32258 10.4     4.03     4.11     4.03     4.11
 grid_collocate_task_list            50  7.0     0.26     4.05     0.26     4.05
 dbcsr_data_new                 ******* 11.4     3.25     3.97     3.25     3.97
 mp_bcast_i                     ******* 17.9     3.53     3.95     3.53     3.95
 alloc_block_3c                       1  9.0     0.18     0.19     3.80     3.88
 dbcsr_iterator_stop            5864164 11.1     3.00     3.14     3.69     3.88
 mp_cart_rank                   ******* 15.9     3.45     3.84     3.45     3.84
 -------------------------------------------------------------------------------

 The number of warnings for this run is : 1
 
 -------------------------------------------------------------------------------
  **** **** ******  **  PROGRAM ENDED AT                 2025-09-19 05:46:36.157
 ***** ** ***  *** **   PROGRAM RAN ON                                 n2lcn0103
 **    ****   ******    PROGRAM RAN BY                                  metdyn02
 ***** **    ** ** **   PROGRAM PROCESS ID                               2287639
  **** **  *******  **  PROGRAM STOPPED IN /scratch/hpc-prf-metdyn/metdyn02_Remi
                                           /05_TMD_new/paperbenchmarksMoS2/kpoin
                                           ts/40
