 DBCSR| CPU Multiplication driver                                           BLAS (U)
 DBCSR| Multrec recursion limit                                              512 (U)
 DBCSR| Multiplication stack size                                           1000 (D)
 DBCSR| Maximum elements for images                                    UNLIMITED (U)
 DBCSR| Multiplicative factor virtual images                                   1 (U)
 DBCSR| Use multiplication densification                                       T (D)
 DBCSR| Multiplication size stacks                                             3 (U)
 DBCSR| Use memory pool for CPU allocation                                     F (U)
 DBCSR| Number of 3D layers                                               SINGLE (U)
 DBCSR| Use MPI memory allocation                                              F (U)
 DBCSR| Use RMA algorithm                                                      F (U)
 DBCSR| Use Communication thread                                               T (U)
 DBCSR| Communication thread load                                             45 (D)
 DBCSR| MPI: My process id                                                     0
 DBCSR| MPI: Number of processes                                             128
 DBCSR| OMP: Current number of threads                                        12
 DBCSR| OMP: Max number of threads                                            12
 DBCSR| Split modifier for TAS multiplication algorithm                  1.0E+00 (U)


  **** **** ******  **  PROGRAM STARTED AT               2025-03-13 23:13:46.983
 ***** ** ***  *** **   PROGRAM STARTED ON                          f01r01c01s01
 **    ****   ******    PROGRAM STARTED BY                               di38fab
 ***** **    ** ** **   PROGRAM PROCESS ID                               1484822
  **** **  *******  **  PROGRAM STARTED IN /hppfs/scratch/04/di38fab/04_TMD/1_Mo
                                           S2_/DZVPnonaug/1e-3

 CP2K| version string:                 CP2K version 2025.1 (Development Version)
 CP2K| source code revision number:                                  git:d2e611a
 CP2K| cp2kflags: omp libint fftw3 libxc parallel scalapack max_contr=4         
 CP2K| is freely available from                            https://www.cp2k.org/
 CP2K| Program compiled at                       Thu 06 Mar 2025 05:09:20 PM CET
 CP2K| Program compiled on                                               login02
 CP2K| Program compiled for                                        Supermuc-foss
 CP2K| Data directory path                  /hppfs/work/pn36zo/di38fab/cp2k/data
 CP2K| Input file name                                                    GW.inp

 GLOBAL| Force Environment number                                              1
 GLOBAL| Basis set file name                                        BASIS_MOLOPT
 GLOBAL| Potential file name            /hppfs/work/pn36zo/di38fab/cp2k/data/GTH
 GLOBAL| MM Potential file name                                     MM_POTENTIAL
 GLOBAL| Coordinate file name                                      __STD_INPUT__
 GLOBAL| Method name                                                        CP2K
 GLOBAL| Project name                                                       MoS2
 GLOBAL| Run type                                                         ENERGY
 GLOBAL| FFT library                                                       FFTW3
 GLOBAL| Diagonalization library                                       ScaLAPACK
 GLOBAL| DGEMM library                                                      BLAS
 GLOBAL| Orthonormality check for eigenvectors                          DISABLED
 GLOBAL| Matrix multiplication library                                 ScaLAPACK
 GLOBAL| All-to-all communication in single precision                          F
 GLOBAL| FFTs using library dependent lengths                                  F
 GLOBAL| Grid backend                                                       AUTO
 GLOBAL| Global print level                                               MEDIUM
 GLOBAL| MPI I/O enabled                                                       T
 GLOBAL| Total number of message passing processes                           128
 GLOBAL| Number of threads for this process                                   12
 GLOBAL| This output is from process                                           0
 GLOBAL| OpenMP stack size per thread (OMP_STACKSIZE)                    default
 GLOBAL| CPU model name             Intel(R) Xeon(R) Platinum 8174 CPU @ 3.10GHz

 MEMORY| system memory details [Kb]
 MEMORY|                        rank 0           min           max       average
 MEMORY| MemTotal            792068884     792068880     792069312     792068903
 MEMORY| MemFree             778235484     778235484     779888212     778678405
 MEMORY| Buffers                     0             0             0             0
 MEMORY| Cached                2435976       2302108       2435976       2322071
 MEMORY| Slab                  1229436        943664       1233232       1190347
 MEMORY| SReclaimable           273724        200092        273724        258646
 MEMORY| MemLikelyFree       780945184     780945184     782402484     781259122


 *** Fundamental physical constants (SI units) ***

 *** Literature: B. J. Mohr and B. N. Taylor,
 ***             CODATA recommended values of the fundamental physical
 ***             constants: 2006, Web Version 5.1
 ***             http://physics.nist.gov/constants

 Speed of light in vacuum [m/s]                             2.99792458000000E+08
 Magnetic constant or permeability of vacuum [N/A**2]       1.25663706143592E-06
 Electric constant or permittivity of vacuum [F/m]          8.85418781762039E-12
 Planck constant (h) [J*s]                                  6.62606896000000E-34
 Planck constant (h-bar) [J*s]                              1.05457162825177E-34
 Elementary charge [C]                                      1.60217648700000E-19
 Electron mass [kg]                                         9.10938215000000E-31
 Electron g factor [ ]                                     -2.00231930436220E+00
 Proton mass [kg]                                           1.67262163700000E-27
 Fine-structure constant                                    7.29735253760000E-03
 Rydberg constant [1/m]                                     1.09737315685270E+07
 Avogadro constant [1/mol]                                  6.02214179000000E+23
 Boltzmann constant [J/K]                                   1.38065040000000E-23
 Atomic mass unit [kg]                                      1.66053878200000E-27
 Bohr radius [m]                                            5.29177208590000E-11

 *** Conversion factors ***

 [u] -> [a.u.]                                              1.82288848426455E+03
 [Angstrom] -> [Bohr] = [a.u.]                              1.88972613288564E+00
 [a.u.] = [Bohr] -> [Angstrom]                              5.29177208590000E-01
 [a.u.] -> [s]                                              2.41888432650478E-17
 [a.u.] -> [fs]                                             2.41888432650478E-02
 [a.u.] -> [J]                                              4.35974393937059E-18
 [a.u.] -> [N]                                              8.23872205491840E-08
 [a.u.] -> [K]                                              3.15774647902944E+05
 [a.u.] -> [kJ/mol]                                         2.62549961709828E+03
 [a.u.] -> [kcal/mol]                                       6.27509468713739E+02
 [a.u.] -> [Pa]                                             2.94210107994716E+13
 [a.u.] -> [bar]                                            2.94210107994716E+08
 [a.u.] -> [atm]                                            2.90362800883016E+08
 [a.u.] -> [eV]                                             2.72113838565563E+01
 [a.u.] -> [Hz]                                             6.57968392072181E+15
 [a.u.] -> [1/cm] (wave numbers)                            2.19474631370540E+05
 [a.u./Bohr**2] -> [1/cm]                                   5.14048714338585E+03
 

 CELL_TOP| Volume [angstrom^3]:                                       131.694613
 CELL_TOP| Vector a [angstrom     3.184     0.000     0.000   |a| =     3.184000
 CELL_TOP| Vector b [angstrom    -1.592     2.757     0.000   |b| =     3.184000
 CELL_TOP| Vector c [angstrom     0.000     0.000    15.000   |c| =    15.000000
 CELL_TOP| Angle (b,c), alpha [degree]:                                90.000000
 CELL_TOP| Angle (a,c), beta  [degree]:                                90.000000
 CELL_TOP| Angle (a,b), gamma [degree]:                               120.000000
 CELL_TOP| Numerically orthorhombic:                                          NO
 CELL_TOP| Periodicity                                                        XY

 GENERATE|  Preliminary Number of Bonds generated:                             0
 GENERATE|  Achieved consistency in connectivity generation.

 CELL| Volume [angstrom^3]:                                           131.694613
 CELL| Vector a [angstrom]:       3.184     0.000     0.000   |a| =     3.184000
 CELL| Vector b [angstrom]:      -1.592     2.757     0.000   |b| =     3.184000
 CELL| Vector c [angstrom]:       0.000     0.000    15.000   |c| =    15.000000
 CELL| Angle (b,c), alpha [degree]:                                    90.000000
 CELL| Angle (a,c), beta  [degree]:                                    90.000000
 CELL| Angle (a,b), gamma [degree]:                                   120.000000
 CELL| Numerically orthorhombic:                                              NO
 CELL| Periodicity                                                            XY

 CELL_REF| Volume [angstrom^3]:                                       131.694613
 CELL_REF| Vector a [angstrom     3.184     0.000     0.000   |a| =     3.184000
 CELL_REF| Vector b [angstrom    -1.592     2.757     0.000   |b| =     3.184000
 CELL_REF| Vector c [angstrom     0.000     0.000    15.000   |c| =    15.000000
 CELL_REF| Angle (b,c), alpha [degree]:                                90.000000
 CELL_REF| Angle (a,c), beta  [degree]:                                90.000000
 CELL_REF| Angle (a,b), gamma [degree]:                               120.000000
 CELL_REF| Numerically orthorhombic:                                          NO
 CELL_REF| Periodicity                                                        XY

 *** WARNING in cryssym.F:180 :: Symmetry library SPGLIB not available ***


 *******************************************************************************
                                    Kpoints
 *******************************************************************************
 BRILLOUIN| K-point scheme                                        Monkhorst-Pack
 BRILLOUIN| K-Point grid                                            32   32    1
 BRILLOUIN| Accuracy in Symmetry determination                      0.100000E-05
 BRILLOUIN| K-Point point group symmetrization                               OFF
 BRILLOUIN| Wavefunction type                                            COMPLEX
 BRILLOUIN| List of Kpoints [2 Pi/Bohr]                                      512
 BRILLOUIN| Number           Weight            X              Y              Z
 BRILLOUIN|     1           0.00195       -0.48438       -0.48438        0.00000
 BRILLOUIN|     2           0.00195       -0.48438       -0.45312        0.00000
 BRILLOUIN|     3           0.00195       -0.48438       -0.42188        0.00000
 BRILLOUIN|     4           0.00195       -0.48438       -0.39062        0.00000
 BRILLOUIN|     5           0.00195       -0.48438       -0.35938        0.00000
 BRILLOUIN|     6           0.00195       -0.48438       -0.32812        0.00000
 BRILLOUIN|     7           0.00195       -0.48438       -0.29688        0.00000
 BRILLOUIN|     8           0.00195       -0.48438       -0.26562        0.00000
 BRILLOUIN|     9           0.00195       -0.48438       -0.23438        0.00000
 BRILLOUIN|    10           0.00195       -0.48438       -0.20312        0.00000
 BRILLOUIN|    11           0.00195       -0.48438       -0.17188        0.00000
 BRILLOUIN|    12           0.00195       -0.48438       -0.14062        0.00000
 BRILLOUIN|    13           0.00195       -0.48438       -0.10938        0.00000
 BRILLOUIN|    14           0.00195       -0.48438       -0.07812        0.00000
 BRILLOUIN|    15           0.00195       -0.48438       -0.04688        0.00000
 BRILLOUIN|    16           0.00195       -0.48438       -0.01562        0.00000
 BRILLOUIN|    17           0.00195       -0.48438        0.01562        0.00000
 BRILLOUIN|    18           0.00195       -0.48438        0.04688        0.00000
 BRILLOUIN|    19           0.00195       -0.48438        0.07812        0.00000
 BRILLOUIN|    20           0.00195       -0.48438        0.10938        0.00000
 BRILLOUIN|    21           0.00195       -0.48438        0.14062        0.00000
 BRILLOUIN|    22           0.00195       -0.48438        0.17188        0.00000
 BRILLOUIN|    23           0.00195       -0.48438        0.20312        0.00000
 BRILLOUIN|    24           0.00195       -0.48438        0.23438        0.00000
 BRILLOUIN|    25           0.00195       -0.48438        0.26562        0.00000
 BRILLOUIN|    26           0.00195       -0.48438        0.29688        0.00000
 BRILLOUIN|    27           0.00195       -0.48438        0.32812        0.00000
 BRILLOUIN|    28           0.00195       -0.48438        0.35938        0.00000
 BRILLOUIN|    29           0.00195       -0.48438        0.39062        0.00000
 BRILLOUIN|    30           0.00195       -0.48438        0.42188        0.00000
 BRILLOUIN|    31           0.00195       -0.48438        0.45312        0.00000
 BRILLOUIN|    32           0.00195       -0.48438        0.48438        0.00000
 BRILLOUIN|    33           0.00195       -0.45312       -0.48438        0.00000
 BRILLOUIN|    34           0.00195       -0.45312       -0.45312        0.00000
 BRILLOUIN|    35           0.00195       -0.45312       -0.42188        0.00000
 BRILLOUIN|    36           0.00195       -0.45312       -0.39062        0.00000
 BRILLOUIN|    37           0.00195       -0.45312       -0.35938        0.00000
 BRILLOUIN|    38           0.00195       -0.45312       -0.32812        0.00000
 BRILLOUIN|    39           0.00195       -0.45312       -0.29688        0.00000
 BRILLOUIN|    40           0.00195       -0.45312       -0.26562        0.00000
 BRILLOUIN|    41           0.00195       -0.45312       -0.23438        0.00000
 BRILLOUIN|    42           0.00195       -0.45312       -0.20312        0.00000
 BRILLOUIN|    43           0.00195       -0.45312       -0.17188        0.00000
 BRILLOUIN|    44           0.00195       -0.45312       -0.14062        0.00000
 BRILLOUIN|    45           0.00195       -0.45312       -0.10938        0.00000
 BRILLOUIN|    46           0.00195       -0.45312       -0.07812        0.00000
 BRILLOUIN|    47           0.00195       -0.45312       -0.04688        0.00000
 BRILLOUIN|    48           0.00195       -0.45312       -0.01562        0.00000
 BRILLOUIN|    49           0.00195       -0.45312        0.01562        0.00000
 BRILLOUIN|    50           0.00195       -0.45312        0.04688        0.00000
 BRILLOUIN|    51           0.00195       -0.45312        0.07812        0.00000
 BRILLOUIN|    52           0.00195       -0.45312        0.10938        0.00000
 BRILLOUIN|    53           0.00195       -0.45312        0.14062        0.00000
 BRILLOUIN|    54           0.00195       -0.45312        0.17188        0.00000
 BRILLOUIN|    55           0.00195       -0.45312        0.20312        0.00000
 BRILLOUIN|    56           0.00195       -0.45312        0.23438        0.00000
 BRILLOUIN|    57           0.00195       -0.45312        0.26562        0.00000
 BRILLOUIN|    58           0.00195       -0.45312        0.29688        0.00000
 BRILLOUIN|    59           0.00195       -0.45312        0.32812        0.00000
 BRILLOUIN|    60           0.00195       -0.45312        0.35938        0.00000
 BRILLOUIN|    61           0.00195       -0.45312        0.39062        0.00000
 BRILLOUIN|    62           0.00195       -0.45312        0.42188        0.00000
 BRILLOUIN|    63           0.00195       -0.45312        0.45312        0.00000
 BRILLOUIN|    64           0.00195       -0.45312        0.48438        0.00000
 BRILLOUIN|    65           0.00195       -0.42188       -0.48438        0.00000
 BRILLOUIN|    66           0.00195       -0.42188       -0.45312        0.00000
 BRILLOUIN|    67           0.00195       -0.42188       -0.42188        0.00000
 BRILLOUIN|    68           0.00195       -0.42188       -0.39062        0.00000
 BRILLOUIN|    69           0.00195       -0.42188       -0.35938        0.00000
 BRILLOUIN|    70           0.00195       -0.42188       -0.32812        0.00000
 BRILLOUIN|    71           0.00195       -0.42188       -0.29688        0.00000
 BRILLOUIN|    72           0.00195       -0.42188       -0.26562        0.00000
 BRILLOUIN|    73           0.00195       -0.42188       -0.23438        0.00000
 BRILLOUIN|    74           0.00195       -0.42188       -0.20312        0.00000
 BRILLOUIN|    75           0.00195       -0.42188       -0.17188        0.00000
 BRILLOUIN|    76           0.00195       -0.42188       -0.14062        0.00000
 BRILLOUIN|    77           0.00195       -0.42188       -0.10938        0.00000
 BRILLOUIN|    78           0.00195       -0.42188       -0.07812        0.00000
 BRILLOUIN|    79           0.00195       -0.42188       -0.04688        0.00000
 BRILLOUIN|    80           0.00195       -0.42188       -0.01562        0.00000
 BRILLOUIN|    81           0.00195       -0.42188        0.01562        0.00000
 BRILLOUIN|    82           0.00195       -0.42188        0.04688        0.00000
 BRILLOUIN|    83           0.00195       -0.42188        0.07812        0.00000
 BRILLOUIN|    84           0.00195       -0.42188        0.10938        0.00000
 BRILLOUIN|    85           0.00195       -0.42188        0.14062        0.00000
 BRILLOUIN|    86           0.00195       -0.42188        0.17188        0.00000
 BRILLOUIN|    87           0.00195       -0.42188        0.20312        0.00000
 BRILLOUIN|    88           0.00195       -0.42188        0.23438        0.00000
 BRILLOUIN|    89           0.00195       -0.42188        0.26562        0.00000
 BRILLOUIN|    90           0.00195       -0.42188        0.29688        0.00000
 BRILLOUIN|    91           0.00195       -0.42188        0.32812        0.00000
 BRILLOUIN|    92           0.00195       -0.42188        0.35938        0.00000
 BRILLOUIN|    93           0.00195       -0.42188        0.39062        0.00000
 BRILLOUIN|    94           0.00195       -0.42188        0.42188        0.00000
 BRILLOUIN|    95           0.00195       -0.42188        0.45312        0.00000
 BRILLOUIN|    96           0.00195       -0.42188        0.48438        0.00000
 BRILLOUIN|    97           0.00195       -0.39062       -0.48438        0.00000
 BRILLOUIN|    98           0.00195       -0.39062       -0.45312        0.00000
 BRILLOUIN|    99           0.00195       -0.39062       -0.42188        0.00000
 BRILLOUIN|   100           0.00195       -0.39062       -0.39062        0.00000
 BRILLOUIN|   101           0.00195       -0.39062       -0.35938        0.00000
 BRILLOUIN|   102           0.00195       -0.39062       -0.32812        0.00000
 BRILLOUIN|   103           0.00195       -0.39062       -0.29688        0.00000
 BRILLOUIN|   104           0.00195       -0.39062       -0.26562        0.00000
 BRILLOUIN|   105           0.00195       -0.39062       -0.23438        0.00000
 BRILLOUIN|   106           0.00195       -0.39062       -0.20312        0.00000
 BRILLOUIN|   107           0.00195       -0.39062       -0.17188        0.00000
 BRILLOUIN|   108           0.00195       -0.39062       -0.14062        0.00000
 BRILLOUIN|   109           0.00195       -0.39062       -0.10938        0.00000
 BRILLOUIN|   110           0.00195       -0.39062       -0.07812        0.00000
 BRILLOUIN|   111           0.00195       -0.39062       -0.04688        0.00000
 BRILLOUIN|   112           0.00195       -0.39062       -0.01562        0.00000
 BRILLOUIN|   113           0.00195       -0.39062        0.01562        0.00000
 BRILLOUIN|   114           0.00195       -0.39062        0.04688        0.00000
 BRILLOUIN|   115           0.00195       -0.39062        0.07812        0.00000
 BRILLOUIN|   116           0.00195       -0.39062        0.10938        0.00000
 BRILLOUIN|   117           0.00195       -0.39062        0.14062        0.00000
 BRILLOUIN|   118           0.00195       -0.39062        0.17188        0.00000
 BRILLOUIN|   119           0.00195       -0.39062        0.20312        0.00000
 BRILLOUIN|   120           0.00195       -0.39062        0.23438        0.00000
 BRILLOUIN|   121           0.00195       -0.39062        0.26562        0.00000
 BRILLOUIN|   122           0.00195       -0.39062        0.29688        0.00000
 BRILLOUIN|   123           0.00195       -0.39062        0.32812        0.00000
 BRILLOUIN|   124           0.00195       -0.39062        0.35938        0.00000
 BRILLOUIN|   125           0.00195       -0.39062        0.39062        0.00000
 BRILLOUIN|   126           0.00195       -0.39062        0.42188        0.00000
 BRILLOUIN|   127           0.00195       -0.39062        0.45312        0.00000
 BRILLOUIN|   128           0.00195       -0.39062        0.48438        0.00000
 BRILLOUIN|   129           0.00195       -0.35938       -0.48438        0.00000
 BRILLOUIN|   130           0.00195       -0.35938       -0.45312        0.00000
 BRILLOUIN|   131           0.00195       -0.35938       -0.42188        0.00000
 BRILLOUIN|   132           0.00195       -0.35938       -0.39062        0.00000
 BRILLOUIN|   133           0.00195       -0.35938       -0.35938        0.00000
 BRILLOUIN|   134           0.00195       -0.35938       -0.32812        0.00000
 BRILLOUIN|   135           0.00195       -0.35938       -0.29688        0.00000
 BRILLOUIN|   136           0.00195       -0.35938       -0.26562        0.00000
 BRILLOUIN|   137           0.00195       -0.35938       -0.23438        0.00000
 BRILLOUIN|   138           0.00195       -0.35938       -0.20312        0.00000
 BRILLOUIN|   139           0.00195       -0.35938       -0.17188        0.00000
 BRILLOUIN|   140           0.00195       -0.35938       -0.14062        0.00000
 BRILLOUIN|   141           0.00195       -0.35938       -0.10938        0.00000
 BRILLOUIN|   142           0.00195       -0.35938       -0.07812        0.00000
 BRILLOUIN|   143           0.00195       -0.35938       -0.04688        0.00000
 BRILLOUIN|   144           0.00195       -0.35938       -0.01562        0.00000
 BRILLOUIN|   145           0.00195       -0.35938        0.01562        0.00000
 BRILLOUIN|   146           0.00195       -0.35938        0.04688        0.00000
 BRILLOUIN|   147           0.00195       -0.35938        0.07812        0.00000
 BRILLOUIN|   148           0.00195       -0.35938        0.10938        0.00000
 BRILLOUIN|   149           0.00195       -0.35938        0.14062        0.00000
 BRILLOUIN|   150           0.00195       -0.35938        0.17188        0.00000
 BRILLOUIN|   151           0.00195       -0.35938        0.20312        0.00000
 BRILLOUIN|   152           0.00195       -0.35938        0.23438        0.00000
 BRILLOUIN|   153           0.00195       -0.35938        0.26562        0.00000
 BRILLOUIN|   154           0.00195       -0.35938        0.29688        0.00000
 BRILLOUIN|   155           0.00195       -0.35938        0.32812        0.00000
 BRILLOUIN|   156           0.00195       -0.35938        0.35938        0.00000
 BRILLOUIN|   157           0.00195       -0.35938        0.39062        0.00000
 BRILLOUIN|   158           0.00195       -0.35938        0.42188        0.00000
 BRILLOUIN|   159           0.00195       -0.35938        0.45312        0.00000
 BRILLOUIN|   160           0.00195       -0.35938        0.48438        0.00000
 BRILLOUIN|   161           0.00195       -0.32812       -0.48438        0.00000
 BRILLOUIN|   162           0.00195       -0.32812       -0.45312        0.00000
 BRILLOUIN|   163           0.00195       -0.32812       -0.42188        0.00000
 BRILLOUIN|   164           0.00195       -0.32812       -0.39062        0.00000
 BRILLOUIN|   165           0.00195       -0.32812       -0.35938        0.00000
 BRILLOUIN|   166           0.00195       -0.32812       -0.32812        0.00000
 BRILLOUIN|   167           0.00195       -0.32812       -0.29688        0.00000
 BRILLOUIN|   168           0.00195       -0.32812       -0.26562        0.00000
 BRILLOUIN|   169           0.00195       -0.32812       -0.23438        0.00000
 BRILLOUIN|   170           0.00195       -0.32812       -0.20312        0.00000
 BRILLOUIN|   171           0.00195       -0.32812       -0.17188        0.00000
 BRILLOUIN|   172           0.00195       -0.32812       -0.14062        0.00000
 BRILLOUIN|   173           0.00195       -0.32812       -0.10938        0.00000
 BRILLOUIN|   174           0.00195       -0.32812       -0.07812        0.00000
 BRILLOUIN|   175           0.00195       -0.32812       -0.04688        0.00000
 BRILLOUIN|   176           0.00195       -0.32812       -0.01562        0.00000
 BRILLOUIN|   177           0.00195       -0.32812        0.01562        0.00000
 BRILLOUIN|   178           0.00195       -0.32812        0.04688        0.00000
 BRILLOUIN|   179           0.00195       -0.32812        0.07812        0.00000
 BRILLOUIN|   180           0.00195       -0.32812        0.10938        0.00000
 BRILLOUIN|   181           0.00195       -0.32812        0.14062        0.00000
 BRILLOUIN|   182           0.00195       -0.32812        0.17188        0.00000
 BRILLOUIN|   183           0.00195       -0.32812        0.20312        0.00000
 BRILLOUIN|   184           0.00195       -0.32812        0.23438        0.00000
 BRILLOUIN|   185           0.00195       -0.32812        0.26562        0.00000
 BRILLOUIN|   186           0.00195       -0.32812        0.29688        0.00000
 BRILLOUIN|   187           0.00195       -0.32812        0.32812        0.00000
 BRILLOUIN|   188           0.00195       -0.32812        0.35938        0.00000
 BRILLOUIN|   189           0.00195       -0.32812        0.39062        0.00000
 BRILLOUIN|   190           0.00195       -0.32812        0.42188        0.00000
 BRILLOUIN|   191           0.00195       -0.32812        0.45312        0.00000
 BRILLOUIN|   192           0.00195       -0.32812        0.48438        0.00000
 BRILLOUIN|   193           0.00195       -0.29688       -0.48438        0.00000
 BRILLOUIN|   194           0.00195       -0.29688       -0.45312        0.00000
 BRILLOUIN|   195           0.00195       -0.29688       -0.42188        0.00000
 BRILLOUIN|   196           0.00195       -0.29688       -0.39062        0.00000
 BRILLOUIN|   197           0.00195       -0.29688       -0.35938        0.00000
 BRILLOUIN|   198           0.00195       -0.29688       -0.32812        0.00000
 BRILLOUIN|   199           0.00195       -0.29688       -0.29688        0.00000
 BRILLOUIN|   200           0.00195       -0.29688       -0.26562        0.00000
 BRILLOUIN|   201           0.00195       -0.29688       -0.23438        0.00000
 BRILLOUIN|   202           0.00195       -0.29688       -0.20312        0.00000
 BRILLOUIN|   203           0.00195       -0.29688       -0.17188        0.00000
 BRILLOUIN|   204           0.00195       -0.29688       -0.14062        0.00000
 BRILLOUIN|   205           0.00195       -0.29688       -0.10938        0.00000
 BRILLOUIN|   206           0.00195       -0.29688       -0.07812        0.00000
 BRILLOUIN|   207           0.00195       -0.29688       -0.04688        0.00000
 BRILLOUIN|   208           0.00195       -0.29688       -0.01562        0.00000
 BRILLOUIN|   209           0.00195       -0.29688        0.01562        0.00000
 BRILLOUIN|   210           0.00195       -0.29688        0.04688        0.00000
 BRILLOUIN|   211           0.00195       -0.29688        0.07812        0.00000
 BRILLOUIN|   212           0.00195       -0.29688        0.10938        0.00000
 BRILLOUIN|   213           0.00195       -0.29688        0.14062        0.00000
 BRILLOUIN|   214           0.00195       -0.29688        0.17188        0.00000
 BRILLOUIN|   215           0.00195       -0.29688        0.20312        0.00000
 BRILLOUIN|   216           0.00195       -0.29688        0.23438        0.00000
 BRILLOUIN|   217           0.00195       -0.29688        0.26562        0.00000
 BRILLOUIN|   218           0.00195       -0.29688        0.29688        0.00000
 BRILLOUIN|   219           0.00195       -0.29688        0.32812        0.00000
 BRILLOUIN|   220           0.00195       -0.29688        0.35938        0.00000
 BRILLOUIN|   221           0.00195       -0.29688        0.39062        0.00000
 BRILLOUIN|   222           0.00195       -0.29688        0.42188        0.00000
 BRILLOUIN|   223           0.00195       -0.29688        0.45312        0.00000
 BRILLOUIN|   224           0.00195       -0.29688        0.48438        0.00000
 BRILLOUIN|   225           0.00195       -0.26562       -0.48438        0.00000
 BRILLOUIN|   226           0.00195       -0.26562       -0.45312        0.00000
 BRILLOUIN|   227           0.00195       -0.26562       -0.42188        0.00000
 BRILLOUIN|   228           0.00195       -0.26562       -0.39062        0.00000
 BRILLOUIN|   229           0.00195       -0.26562       -0.35938        0.00000
 BRILLOUIN|   230           0.00195       -0.26562       -0.32812        0.00000
 BRILLOUIN|   231           0.00195       -0.26562       -0.29688        0.00000
 BRILLOUIN|   232           0.00195       -0.26562       -0.26562        0.00000
 BRILLOUIN|   233           0.00195       -0.26562       -0.23438        0.00000
 BRILLOUIN|   234           0.00195       -0.26562       -0.20312        0.00000
 BRILLOUIN|   235           0.00195       -0.26562       -0.17188        0.00000
 BRILLOUIN|   236           0.00195       -0.26562       -0.14062        0.00000
 BRILLOUIN|   237           0.00195       -0.26562       -0.10938        0.00000
 BRILLOUIN|   238           0.00195       -0.26562       -0.07812        0.00000
 BRILLOUIN|   239           0.00195       -0.26562       -0.04688        0.00000
 BRILLOUIN|   240           0.00195       -0.26562       -0.01562        0.00000
 BRILLOUIN|   241           0.00195       -0.26562        0.01562        0.00000
 BRILLOUIN|   242           0.00195       -0.26562        0.04688        0.00000
 BRILLOUIN|   243           0.00195       -0.26562        0.07812        0.00000
 BRILLOUIN|   244           0.00195       -0.26562        0.10938        0.00000
 BRILLOUIN|   245           0.00195       -0.26562        0.14062        0.00000
 BRILLOUIN|   246           0.00195       -0.26562        0.17188        0.00000
 BRILLOUIN|   247           0.00195       -0.26562        0.20312        0.00000
 BRILLOUIN|   248           0.00195       -0.26562        0.23438        0.00000
 BRILLOUIN|   249           0.00195       -0.26562        0.26562        0.00000
 BRILLOUIN|   250           0.00195       -0.26562        0.29688        0.00000
 BRILLOUIN|   251           0.00195       -0.26562        0.32812        0.00000
 BRILLOUIN|   252           0.00195       -0.26562        0.35938        0.00000
 BRILLOUIN|   253           0.00195       -0.26562        0.39062        0.00000
 BRILLOUIN|   254           0.00195       -0.26562        0.42188        0.00000
 BRILLOUIN|   255           0.00195       -0.26562        0.45312        0.00000
 BRILLOUIN|   256           0.00195       -0.26562        0.48438        0.00000
 BRILLOUIN|   257           0.00195       -0.23438       -0.48438        0.00000
 BRILLOUIN|   258           0.00195       -0.23438       -0.45312        0.00000
 BRILLOUIN|   259           0.00195       -0.23438       -0.42188        0.00000
 BRILLOUIN|   260           0.00195       -0.23438       -0.39062        0.00000
 BRILLOUIN|   261           0.00195       -0.23438       -0.35938        0.00000
 BRILLOUIN|   262           0.00195       -0.23438       -0.32812        0.00000
 BRILLOUIN|   263           0.00195       -0.23438       -0.29688        0.00000
 BRILLOUIN|   264           0.00195       -0.23438       -0.26562        0.00000
 BRILLOUIN|   265           0.00195       -0.23438       -0.23438        0.00000
 BRILLOUIN|   266           0.00195       -0.23438       -0.20312        0.00000
 BRILLOUIN|   267           0.00195       -0.23438       -0.17188        0.00000
 BRILLOUIN|   268           0.00195       -0.23438       -0.14062        0.00000
 BRILLOUIN|   269           0.00195       -0.23438       -0.10938        0.00000
 BRILLOUIN|   270           0.00195       -0.23438       -0.07812        0.00000
 BRILLOUIN|   271           0.00195       -0.23438       -0.04688        0.00000
 BRILLOUIN|   272           0.00195       -0.23438       -0.01562        0.00000
 BRILLOUIN|   273           0.00195       -0.23438        0.01562        0.00000
 BRILLOUIN|   274           0.00195       -0.23438        0.04688        0.00000
 BRILLOUIN|   275           0.00195       -0.23438        0.07812        0.00000
 BRILLOUIN|   276           0.00195       -0.23438        0.10938        0.00000
 BRILLOUIN|   277           0.00195       -0.23438        0.14062        0.00000
 BRILLOUIN|   278           0.00195       -0.23438        0.17188        0.00000
 BRILLOUIN|   279           0.00195       -0.23438        0.20312        0.00000
 BRILLOUIN|   280           0.00195       -0.23438        0.23438        0.00000
 BRILLOUIN|   281           0.00195       -0.23438        0.26562        0.00000
 BRILLOUIN|   282           0.00195       -0.23438        0.29688        0.00000
 BRILLOUIN|   283           0.00195       -0.23438        0.32812        0.00000
 BRILLOUIN|   284           0.00195       -0.23438        0.35938        0.00000
 BRILLOUIN|   285           0.00195       -0.23438        0.39062        0.00000
 BRILLOUIN|   286           0.00195       -0.23438        0.42188        0.00000
 BRILLOUIN|   287           0.00195       -0.23438        0.45312        0.00000
 BRILLOUIN|   288           0.00195       -0.23438        0.48438        0.00000
 BRILLOUIN|   289           0.00195       -0.20312       -0.48438        0.00000
 BRILLOUIN|   290           0.00195       -0.20312       -0.45312        0.00000
 BRILLOUIN|   291           0.00195       -0.20312       -0.42188        0.00000
 BRILLOUIN|   292           0.00195       -0.20312       -0.39062        0.00000
 BRILLOUIN|   293           0.00195       -0.20312       -0.35938        0.00000
 BRILLOUIN|   294           0.00195       -0.20312       -0.32812        0.00000
 BRILLOUIN|   295           0.00195       -0.20312       -0.29688        0.00000
 BRILLOUIN|   296           0.00195       -0.20312       -0.26562        0.00000
 BRILLOUIN|   297           0.00195       -0.20312       -0.23438        0.00000
 BRILLOUIN|   298           0.00195       -0.20312       -0.20312        0.00000
 BRILLOUIN|   299           0.00195       -0.20312       -0.17188        0.00000
 BRILLOUIN|   300           0.00195       -0.20312       -0.14062        0.00000
 BRILLOUIN|   301           0.00195       -0.20312       -0.10938        0.00000
 BRILLOUIN|   302           0.00195       -0.20312       -0.07812        0.00000
 BRILLOUIN|   303           0.00195       -0.20312       -0.04688        0.00000
 BRILLOUIN|   304           0.00195       -0.20312       -0.01562        0.00000
 BRILLOUIN|   305           0.00195       -0.20312        0.01562        0.00000
 BRILLOUIN|   306           0.00195       -0.20312        0.04688        0.00000
 BRILLOUIN|   307           0.00195       -0.20312        0.07812        0.00000
 BRILLOUIN|   308           0.00195       -0.20312        0.10938        0.00000
 BRILLOUIN|   309           0.00195       -0.20312        0.14062        0.00000
 BRILLOUIN|   310           0.00195       -0.20312        0.17188        0.00000
 BRILLOUIN|   311           0.00195       -0.20312        0.20312        0.00000
 BRILLOUIN|   312           0.00195       -0.20312        0.23438        0.00000
 BRILLOUIN|   313           0.00195       -0.20312        0.26562        0.00000
 BRILLOUIN|   314           0.00195       -0.20312        0.29688        0.00000
 BRILLOUIN|   315           0.00195       -0.20312        0.32812        0.00000
 BRILLOUIN|   316           0.00195       -0.20312        0.35938        0.00000
 BRILLOUIN|   317           0.00195       -0.20312        0.39062        0.00000
 BRILLOUIN|   318           0.00195       -0.20312        0.42188        0.00000
 BRILLOUIN|   319           0.00195       -0.20312        0.45312        0.00000
 BRILLOUIN|   320           0.00195       -0.20312        0.48438        0.00000
 BRILLOUIN|   321           0.00195       -0.17188       -0.48438        0.00000
 BRILLOUIN|   322           0.00195       -0.17188       -0.45312        0.00000
 BRILLOUIN|   323           0.00195       -0.17188       -0.42188        0.00000
 BRILLOUIN|   324           0.00195       -0.17188       -0.39062        0.00000
 BRILLOUIN|   325           0.00195       -0.17188       -0.35938        0.00000
 BRILLOUIN|   326           0.00195       -0.17188       -0.32812        0.00000
 BRILLOUIN|   327           0.00195       -0.17188       -0.29688        0.00000
 BRILLOUIN|   328           0.00195       -0.17188       -0.26562        0.00000
 BRILLOUIN|   329           0.00195       -0.17188       -0.23438        0.00000
 BRILLOUIN|   330           0.00195       -0.17188       -0.20312        0.00000
 BRILLOUIN|   331           0.00195       -0.17188       -0.17188        0.00000
 BRILLOUIN|   332           0.00195       -0.17188       -0.14062        0.00000
 BRILLOUIN|   333           0.00195       -0.17188       -0.10938        0.00000
 BRILLOUIN|   334           0.00195       -0.17188       -0.07812        0.00000
 BRILLOUIN|   335           0.00195       -0.17188       -0.04688        0.00000
 BRILLOUIN|   336           0.00195       -0.17188       -0.01562        0.00000
 BRILLOUIN|   337           0.00195       -0.17188        0.01562        0.00000
 BRILLOUIN|   338           0.00195       -0.17188        0.04688        0.00000
 BRILLOUIN|   339           0.00195       -0.17188        0.07812        0.00000
 BRILLOUIN|   340           0.00195       -0.17188        0.10938        0.00000
 BRILLOUIN|   341           0.00195       -0.17188        0.14062        0.00000
 BRILLOUIN|   342           0.00195       -0.17188        0.17188        0.00000
 BRILLOUIN|   343           0.00195       -0.17188        0.20312        0.00000
 BRILLOUIN|   344           0.00195       -0.17188        0.23438        0.00000
 BRILLOUIN|   345           0.00195       -0.17188        0.26562        0.00000
 BRILLOUIN|   346           0.00195       -0.17188        0.29688        0.00000
 BRILLOUIN|   347           0.00195       -0.17188        0.32812        0.00000
 BRILLOUIN|   348           0.00195       -0.17188        0.35938        0.00000
 BRILLOUIN|   349           0.00195       -0.17188        0.39062        0.00000
 BRILLOUIN|   350           0.00195       -0.17188        0.42188        0.00000
 BRILLOUIN|   351           0.00195       -0.17188        0.45312        0.00000
 BRILLOUIN|   352           0.00195       -0.17188        0.48438        0.00000
 BRILLOUIN|   353           0.00195       -0.14062       -0.48438        0.00000
 BRILLOUIN|   354           0.00195       -0.14062       -0.45312        0.00000
 BRILLOUIN|   355           0.00195       -0.14062       -0.42188        0.00000
 BRILLOUIN|   356           0.00195       -0.14062       -0.39062        0.00000
 BRILLOUIN|   357           0.00195       -0.14062       -0.35938        0.00000
 BRILLOUIN|   358           0.00195       -0.14062       -0.32812        0.00000
 BRILLOUIN|   359           0.00195       -0.14062       -0.29688        0.00000
 BRILLOUIN|   360           0.00195       -0.14062       -0.26562        0.00000
 BRILLOUIN|   361           0.00195       -0.14062       -0.23438        0.00000
 BRILLOUIN|   362           0.00195       -0.14062       -0.20312        0.00000
 BRILLOUIN|   363           0.00195       -0.14062       -0.17188        0.00000
 BRILLOUIN|   364           0.00195       -0.14062       -0.14062        0.00000
 BRILLOUIN|   365           0.00195       -0.14062       -0.10938        0.00000
 BRILLOUIN|   366           0.00195       -0.14062       -0.07812        0.00000
 BRILLOUIN|   367           0.00195       -0.14062       -0.04688        0.00000
 BRILLOUIN|   368           0.00195       -0.14062       -0.01562        0.00000
 BRILLOUIN|   369           0.00195       -0.14062        0.01562        0.00000
 BRILLOUIN|   370           0.00195       -0.14062        0.04688        0.00000
 BRILLOUIN|   371           0.00195       -0.14062        0.07812        0.00000
 BRILLOUIN|   372           0.00195       -0.14062        0.10938        0.00000
 BRILLOUIN|   373           0.00195       -0.14062        0.14062        0.00000
 BRILLOUIN|   374           0.00195       -0.14062        0.17188        0.00000
 BRILLOUIN|   375           0.00195       -0.14062        0.20312        0.00000
 BRILLOUIN|   376           0.00195       -0.14062        0.23438        0.00000
 BRILLOUIN|   377           0.00195       -0.14062        0.26562        0.00000
 BRILLOUIN|   378           0.00195       -0.14062        0.29688        0.00000
 BRILLOUIN|   379           0.00195       -0.14062        0.32812        0.00000
 BRILLOUIN|   380           0.00195       -0.14062        0.35938        0.00000
 BRILLOUIN|   381           0.00195       -0.14062        0.39062        0.00000
 BRILLOUIN|   382           0.00195       -0.14062        0.42188        0.00000
 BRILLOUIN|   383           0.00195       -0.14062        0.45312        0.00000
 BRILLOUIN|   384           0.00195       -0.14062        0.48438        0.00000
 BRILLOUIN|   385           0.00195       -0.10938       -0.48438        0.00000
 BRILLOUIN|   386           0.00195       -0.10938       -0.45312        0.00000
 BRILLOUIN|   387           0.00195       -0.10938       -0.42188        0.00000
 BRILLOUIN|   388           0.00195       -0.10938       -0.39062        0.00000
 BRILLOUIN|   389           0.00195       -0.10938       -0.35938        0.00000
 BRILLOUIN|   390           0.00195       -0.10938       -0.32812        0.00000
 BRILLOUIN|   391           0.00195       -0.10938       -0.29688        0.00000
 BRILLOUIN|   392           0.00195       -0.10938       -0.26562        0.00000
 BRILLOUIN|   393           0.00195       -0.10938       -0.23438        0.00000
 BRILLOUIN|   394           0.00195       -0.10938       -0.20312        0.00000
 BRILLOUIN|   395           0.00195       -0.10938       -0.17188        0.00000
 BRILLOUIN|   396           0.00195       -0.10938       -0.14062        0.00000
 BRILLOUIN|   397           0.00195       -0.10938       -0.10938        0.00000
 BRILLOUIN|   398           0.00195       -0.10938       -0.07812        0.00000
 BRILLOUIN|   399           0.00195       -0.10938       -0.04688        0.00000
 BRILLOUIN|   400           0.00195       -0.10938       -0.01562        0.00000
 BRILLOUIN|   401           0.00195       -0.10938        0.01562        0.00000
 BRILLOUIN|   402           0.00195       -0.10938        0.04688        0.00000
 BRILLOUIN|   403           0.00195       -0.10938        0.07812        0.00000
 BRILLOUIN|   404           0.00195       -0.10938        0.10938        0.00000
 BRILLOUIN|   405           0.00195       -0.10938        0.14062        0.00000
 BRILLOUIN|   406           0.00195       -0.10938        0.17188        0.00000
 BRILLOUIN|   407           0.00195       -0.10938        0.20312        0.00000
 BRILLOUIN|   408           0.00195       -0.10938        0.23438        0.00000
 BRILLOUIN|   409           0.00195       -0.10938        0.26562        0.00000
 BRILLOUIN|   410           0.00195       -0.10938        0.29688        0.00000
 BRILLOUIN|   411           0.00195       -0.10938        0.32812        0.00000
 BRILLOUIN|   412           0.00195       -0.10938        0.35938        0.00000
 BRILLOUIN|   413           0.00195       -0.10938        0.39062        0.00000
 BRILLOUIN|   414           0.00195       -0.10938        0.42188        0.00000
 BRILLOUIN|   415           0.00195       -0.10938        0.45312        0.00000
 BRILLOUIN|   416           0.00195       -0.10938        0.48438        0.00000
 BRILLOUIN|   417           0.00195       -0.07812       -0.48438        0.00000
 BRILLOUIN|   418           0.00195       -0.07812       -0.45312        0.00000
 BRILLOUIN|   419           0.00195       -0.07812       -0.42188        0.00000
 BRILLOUIN|   420           0.00195       -0.07812       -0.39062        0.00000
 BRILLOUIN|   421           0.00195       -0.07812       -0.35938        0.00000
 BRILLOUIN|   422           0.00195       -0.07812       -0.32812        0.00000
 BRILLOUIN|   423           0.00195       -0.07812       -0.29688        0.00000
 BRILLOUIN|   424           0.00195       -0.07812       -0.26562        0.00000
 BRILLOUIN|   425           0.00195       -0.07812       -0.23438        0.00000
 BRILLOUIN|   426           0.00195       -0.07812       -0.20312        0.00000
 BRILLOUIN|   427           0.00195       -0.07812       -0.17188        0.00000
 BRILLOUIN|   428           0.00195       -0.07812       -0.14062        0.00000
 BRILLOUIN|   429           0.00195       -0.07812       -0.10938        0.00000
 BRILLOUIN|   430           0.00195       -0.07812       -0.07812        0.00000
 BRILLOUIN|   431           0.00195       -0.07812       -0.04688        0.00000
 BRILLOUIN|   432           0.00195       -0.07812       -0.01562        0.00000
 BRILLOUIN|   433           0.00195       -0.07812        0.01562        0.00000
 BRILLOUIN|   434           0.00195       -0.07812        0.04688        0.00000
 BRILLOUIN|   435           0.00195       -0.07812        0.07812        0.00000
 BRILLOUIN|   436           0.00195       -0.07812        0.10938        0.00000
 BRILLOUIN|   437           0.00195       -0.07812        0.14062        0.00000
 BRILLOUIN|   438           0.00195       -0.07812        0.17188        0.00000
 BRILLOUIN|   439           0.00195       -0.07812        0.20312        0.00000
 BRILLOUIN|   440           0.00195       -0.07812        0.23438        0.00000
 BRILLOUIN|   441           0.00195       -0.07812        0.26562        0.00000
 BRILLOUIN|   442           0.00195       -0.07812        0.29688        0.00000
 BRILLOUIN|   443           0.00195       -0.07812        0.32812        0.00000
 BRILLOUIN|   444           0.00195       -0.07812        0.35938        0.00000
 BRILLOUIN|   445           0.00195       -0.07812        0.39062        0.00000
 BRILLOUIN|   446           0.00195       -0.07812        0.42188        0.00000
 BRILLOUIN|   447           0.00195       -0.07812        0.45312        0.00000
 BRILLOUIN|   448           0.00195       -0.07812        0.48438        0.00000
 BRILLOUIN|   449           0.00195       -0.04688       -0.48438        0.00000
 BRILLOUIN|   450           0.00195       -0.04688       -0.45312        0.00000
 BRILLOUIN|   451           0.00195       -0.04688       -0.42188        0.00000
 BRILLOUIN|   452           0.00195       -0.04688       -0.39062        0.00000
 BRILLOUIN|   453           0.00195       -0.04688       -0.35938        0.00000
 BRILLOUIN|   454           0.00195       -0.04688       -0.32812        0.00000
 BRILLOUIN|   455           0.00195       -0.04688       -0.29688        0.00000
 BRILLOUIN|   456           0.00195       -0.04688       -0.26562        0.00000
 BRILLOUIN|   457           0.00195       -0.04688       -0.23438        0.00000
 BRILLOUIN|   458           0.00195       -0.04688       -0.20312        0.00000
 BRILLOUIN|   459           0.00195       -0.04688       -0.17188        0.00000
 BRILLOUIN|   460           0.00195       -0.04688       -0.14062        0.00000
 BRILLOUIN|   461           0.00195       -0.04688       -0.10938        0.00000
 BRILLOUIN|   462           0.00195       -0.04688       -0.07812        0.00000
 BRILLOUIN|   463           0.00195       -0.04688       -0.04688        0.00000
 BRILLOUIN|   464           0.00195       -0.04688       -0.01562        0.00000
 BRILLOUIN|   465           0.00195       -0.04688        0.01562        0.00000
 BRILLOUIN|   466           0.00195       -0.04688        0.04688        0.00000
 BRILLOUIN|   467           0.00195       -0.04688        0.07812        0.00000
 BRILLOUIN|   468           0.00195       -0.04688        0.10938        0.00000
 BRILLOUIN|   469           0.00195       -0.04688        0.14062        0.00000
 BRILLOUIN|   470           0.00195       -0.04688        0.17188        0.00000
 BRILLOUIN|   471           0.00195       -0.04688        0.20312        0.00000
 BRILLOUIN|   472           0.00195       -0.04688        0.23438        0.00000
 BRILLOUIN|   473           0.00195       -0.04688        0.26562        0.00000
 BRILLOUIN|   474           0.00195       -0.04688        0.29688        0.00000
 BRILLOUIN|   475           0.00195       -0.04688        0.32812        0.00000
 BRILLOUIN|   476           0.00195       -0.04688        0.35938        0.00000
 BRILLOUIN|   477           0.00195       -0.04688        0.39062        0.00000
 BRILLOUIN|   478           0.00195       -0.04688        0.42188        0.00000
 BRILLOUIN|   479           0.00195       -0.04688        0.45312        0.00000
 BRILLOUIN|   480           0.00195       -0.04688        0.48438        0.00000
 BRILLOUIN|   481           0.00195       -0.01562       -0.48438        0.00000
 BRILLOUIN|   482           0.00195       -0.01562       -0.45312        0.00000
 BRILLOUIN|   483           0.00195       -0.01562       -0.42188        0.00000
 BRILLOUIN|   484           0.00195       -0.01562       -0.39062        0.00000
 BRILLOUIN|   485           0.00195       -0.01562       -0.35938        0.00000
 BRILLOUIN|   486           0.00195       -0.01562       -0.32812        0.00000
 BRILLOUIN|   487           0.00195       -0.01562       -0.29688        0.00000
 BRILLOUIN|   488           0.00195       -0.01562       -0.26562        0.00000
 BRILLOUIN|   489           0.00195       -0.01562       -0.23438        0.00000
 BRILLOUIN|   490           0.00195       -0.01562       -0.20312        0.00000
 BRILLOUIN|   491           0.00195       -0.01562       -0.17188        0.00000
 BRILLOUIN|   492           0.00195       -0.01562       -0.14062        0.00000
 BRILLOUIN|   493           0.00195       -0.01562       -0.10938        0.00000
 BRILLOUIN|   494           0.00195       -0.01562       -0.07812        0.00000
 BRILLOUIN|   495           0.00195       -0.01562       -0.04688        0.00000
 BRILLOUIN|   496           0.00195       -0.01562       -0.01562        0.00000
 BRILLOUIN|   497           0.00195       -0.01562        0.01562        0.00000
 BRILLOUIN|   498           0.00195       -0.01562        0.04688        0.00000
 BRILLOUIN|   499           0.00195       -0.01562        0.07812        0.00000
 BRILLOUIN|   500           0.00195       -0.01562        0.10938        0.00000
 BRILLOUIN|   501           0.00195       -0.01562        0.14062        0.00000
 BRILLOUIN|   502           0.00195       -0.01562        0.17188        0.00000
 BRILLOUIN|   503           0.00195       -0.01562        0.20312        0.00000
 BRILLOUIN|   504           0.00195       -0.01562        0.23438        0.00000
 BRILLOUIN|   505           0.00195       -0.01562        0.26562        0.00000
 BRILLOUIN|   506           0.00195       -0.01562        0.29688        0.00000
 BRILLOUIN|   507           0.00195       -0.01562        0.32812        0.00000
 BRILLOUIN|   508           0.00195       -0.01562        0.35938        0.00000
 BRILLOUIN|   509           0.00195       -0.01562        0.39062        0.00000
 BRILLOUIN|   510           0.00195       -0.01562        0.42188        0.00000
 BRILLOUIN|   511           0.00195       -0.01562        0.45312        0.00000
 BRILLOUIN|   512           0.00195       -0.01562        0.48438        0.00000
 *******************************************************************************

 *******************************************************************************
 *******************************************************************************
 **                                                                           **
 **     #####                         ##              ##                      **
 **    ##   ##            ##          ##              ##                      **
 **   ##     ##                       ##            ######                    **
 **   ##     ##  ##   ##  ##   #####  ##  ##   ####   ##    #####    #####    **
 **   ##     ##  ##   ##  ##  ##      ## ##   ##      ##   ##   ##  ##   ##   **
 **   ##  ## ##  ##   ##  ##  ##      ####     ###    ##   ######   ######    **
 **    ##  ###   ##   ##  ##  ##      ## ##      ##   ##   ##       ##        **
 **     #######   #####   ##   #####  ##  ##  ####    ##    #####   ##        **
 **           ##                                                    ##        **
 **                                                                           **
 **                                                ... make the atoms dance   **
 **                                                                           **
 **            Copyright (C) by CP2K developers group (2000-2025)             **
 **                      J. Chem. Phys. 152, 194103 (2020)                    **
 **                                                                           **
 *******************************************************************************

 DFT| Spin restricted Kohn-Sham (RKS) calculation                            RKS
 DFT| Multiplicity                                                             1
 DFT| Number of spin states                                                    1
 DFT| Charge                                                                   0
 DFT| Self-interaction correction (SIC)                                       NO
 DFT| Cutoffs: density                                              1.000000E-10
 DFT|          gradient                                             1.000000E-10
 DFT|          tau                                                  1.000000E-10
 DFT|          cutoff_smoothing_range                               0.000000E+00
 DFT| XC density smoothing                                                  NONE
 DFT| XC derivatives                                                          PW

 FUNCTIONAL| PBE:
 FUNCTIONAL| J.P.Perdew, K.Burke, M.Ernzerhof, Phys. Rev. Letter, vol. 77, n 18,
 FUNCTIONAL|  pp. 3865-3868, (1996) {spin unpolarized}                          


 QS| Method:                                                                GAPW
 QS| Density plane wave grid type                        NON-SPHERICAL FULLSPACE
 QS| Number of grid levels:                                                    4
 QS| Density cutoff [a.u.]:                                                250.0
 QS| Multi grid cutoff [a.u.]: 1) grid level                               250.0
 QS|                           2) grid level                                83.3
 QS|                           3) grid level                                27.8
 QS|                           4) grid level                                 9.3
 QS| Grid level progression factor:                                          3.0
 QS| Relative density cutoff [a.u.]:                                        50.0
 QS| Interaction thresholds: eps_pgf_orb:                                1.0E-12
 QS|                         eps_filter_matrix:                          0.0E+00
 QS|                         eps_core_charge:                            1.0E-14
 QS|                         eps_rho_gspace:                             1.0E-12
 QS|                         eps_rho_rspace:                             1.0E-12
 QS|                         eps_gvg_rspace:                             1.0E-06
 QS|                         eps_ppl:                                    1.0E-02
 QS|                         eps_ppnl:                                   1.0E-08
 QS| GAPW|      One center basis from orbital basis primitives
 QS| GAPW|                   eps_fit:                                    1.0E-04
 QS| GAPW|                   eps_iso:                                    1.0E-12
 QS| GAPW|                   eps_svd:                                    1.0E-08
 QS| GAPW|                   eps_cpc:                                    1.0E-12
 QS| GAPW|   atom-r-grid: quadrature:                                     GC_LOG
 QS| GAPW|      atom-s-grid:  max l :                                          6
 QS| GAPW|      max_l_rho0 :                                                   2
 QS| GAPW|      At least one kind is NOT PAW, i.e. it has only soft AO 
 QS| GAPW|      The NOT PAW atoms are treated fully GPW


 ATOMIC KIND INFORMATION

  1. Atomic kind: Mo                                    Number of atoms:       1

     Orbital Basis Set                                   DZVP-MOLOPT-PBE-GTH-q14

       Number of orbital shell sets:                                           1
       Number of orbital shells:                                               8
       Number of primitive Cartesian functions:                                6
       Number of Cartesian basis functions:                                   31
       Number of spherical basis functions:                                   26
       Norm type:                                                              2

       Normalised Cartesian orbitals:

                        Set   Shell   Orbital            Exponent    Coefficient

                          1       1    2s                2.544684      -0.188075
                                                         2.316245       0.296669
                                                         1.083413       0.433312
                                                         0.493050       0.017917
                                                         0.171157       0.067610
                                                         0.057249       0.008222

                          1       2    3s                2.544684      -0.583575
                                                         2.316245       0.348793
                                                         1.083413       0.149394
                                                         0.493050       0.143576
                                                         0.171157      -0.084316
                                                         0.057249      -0.067836

                          1       3    4s                2.544684       0.985904
                                                         2.316245       0.700484
                                                         1.083413      -0.090132
                                                         0.493050      -0.181791
                                                         0.171157       0.061855
                                                         0.057249      -0.047132

                          1       4    3px               2.544684       2.385025
                                                         2.316245      -1.995598
                                                         1.083413      -0.348630
                                                         0.493050      -0.168348
                                                         0.171157      -0.074762
                                                         0.057249      -0.009095
                          1       4    3py               2.544684       2.385025
                                                         2.316245      -1.995598
                                                         1.083413      -0.348630
                                                         0.493050      -0.168348
                                                         0.171157      -0.074762
                                                         0.057249      -0.009095
                          1       4    3pz               2.544684       2.385025
                                                         2.316245      -1.995598
                                                         1.083413      -0.348630
                                                         0.493050      -0.168348
                                                         0.171157      -0.074762
                                                         0.057249      -0.009095

                          1       5    4px               2.544684       1.680915
                                                         2.316245      -1.701974
                                                         1.083413      -0.295783
                                                         0.493050      -0.016655
                                                         0.171157       0.117406
                                                         0.057249       0.015577
                          1       5    4py               2.544684       1.680915
                                                         2.316245      -1.701974
                                                         1.083413      -0.295783
                                                         0.493050      -0.016655
                                                         0.171157       0.117406
                                                         0.057249       0.015577
                          1       5    4pz               2.544684       1.680915
                                                         2.316245      -1.701974
                                                         1.083413      -0.295783
                                                         0.493050      -0.016655
                                                         0.171157       0.117406
                                                         0.057249       0.015577

                          1       6    4dx2              2.544684     -22.567275
                                                         2.316245       8.400806
                                                         1.083413       2.941227
                                                         0.493050      -0.248714
                                                         0.171157       0.016061
                                                         0.057249      -0.000063
                          1       6    4dxy              2.544684     -39.087666
                                                         2.316245      14.550622
                                                         1.083413       5.094354
                                                         0.493050      -0.430786
                                                         0.171157       0.027818
                                                         0.057249      -0.000108
                          1       6    4dxz              2.544684     -39.087666
                                                         2.316245      14.550622
                                                         1.083413       5.094354
                                                         0.493050      -0.430786
                                                         0.171157       0.027818
                                                         0.057249      -0.000108
                          1       6    4dy2              2.544684     -22.567275
                                                         2.316245       8.400806
                                                         1.083413       2.941227
                                                         0.493050      -0.248714
                                                         0.171157       0.016061
                                                         0.057249      -0.000063
                          1       6    4dyz              2.544684     -39.087666
                                                         2.316245      14.550622
                                                         1.083413       5.094354
                                                         0.493050      -0.430786
                                                         0.171157       0.027818
                                                         0.057249      -0.000108
                          1       6    4dz2              2.544684     -22.567275
                                                         2.316245       8.400806
                                                         1.083413       2.941227
                                                         0.493050      -0.248714
                                                         0.171157       0.016061
                                                         0.057249      -0.000063

                          1       7    5dx2              2.544684       0.273804
                                                         2.316245       3.109207
                                                         1.083413      -0.209533
                                                         0.493050       0.289178
                                                         0.171157       0.022622
                                                         0.057249       0.000731
                          1       7    5dxy              2.544684       0.474242
                                                         2.316245       5.385305
                                                         1.083413      -0.362922
                                                         0.493050       0.500872
                                                         0.171157       0.039182
                                                         0.057249       0.001265
                          1       7    5dxz              2.544684       0.474242
                                                         2.316245       5.385305
                                                         1.083413      -0.362922
                                                         0.493050       0.500872
                                                         0.171157       0.039182
                                                         0.057249       0.001265
                          1       7    5dy2              2.544684       0.273804
                                                         2.316245       3.109207
                                                         1.083413      -0.209533
                                                         0.493050       0.289178
                                                         0.171157       0.022622
                                                         0.057249       0.000731
                          1       7    5dyz              2.544684       0.474242
                                                         2.316245       5.385305
                                                         1.083413      -0.362922
                                                         0.493050       0.500872
                                                         0.171157       0.039182
                                                         0.057249       0.001265
                          1       7    5dz2              2.544684       0.273804
                                                         2.316245       3.109207
                                                         1.083413      -0.209533
                                                         0.493050       0.289178
                                                         0.171157       0.022622
                                                         0.057249       0.000731

                          1       8    5fx3              2.544684       0.050018
                                                         2.316245      -0.051094
                                                         1.083413      -0.302285
                                                         0.493050      -0.146467
                                                         0.171157      -0.013670
                                                         0.057249      -0.000239
                          1       8    5fx2y             2.544684       0.111843
                                                         2.316245      -0.114249
                                                         1.083413      -0.675930
                                                         0.493050      -0.327511
                                                         0.171157      -0.030567
                                                         0.057249      -0.000535
                          1       8    5fx2z             2.544684       0.111843
                                                         2.316245      -0.114249
                                                         1.083413      -0.675930
                                                         0.493050      -0.327511
                                                         0.171157      -0.030567
                                                         0.057249      -0.000535
                          1       8    5fxy2             2.544684       0.111843
                                                         2.316245      -0.114249
                                                         1.083413      -0.675930
                                                         0.493050      -0.327511
                                                         0.171157      -0.030567
                                                         0.057249      -0.000535
                          1       8    5fxyz             2.544684       0.193717
                                                         2.316245      -0.197885
                                                         1.083413      -1.170745
                                                         0.493050      -0.567265
                                                         0.171157      -0.052944
                                                         0.057249      -0.000927
                          1       8    5fxz2             2.544684       0.111843
                                                         2.316245      -0.114249
                                                         1.083413      -0.675930
                                                         0.493050      -0.327511
                                                         0.171157      -0.030567
                                                         0.057249      -0.000535
                          1       8    5fy3              2.544684       0.050018
                                                         2.316245      -0.051094
                                                         1.083413      -0.302285
                                                         0.493050      -0.146467
                                                         0.171157      -0.013670
                                                         0.057249      -0.000239
                          1       8    5fy2z             2.544684       0.111843
                                                         2.316245      -0.114249
                                                         1.083413      -0.675930
                                                         0.493050      -0.327511
                                                         0.171157      -0.030567
                                                         0.057249      -0.000535
                          1       8    5fyz2             2.544684       0.111843
                                                         2.316245      -0.114249
                                                         1.083413      -0.675930
                                                         0.493050      -0.327511
                                                         0.171157      -0.030567
                                                         0.057249      -0.000535
                          1       8    5fz3              2.544684       0.050018
                                                         2.316245      -0.051094
                                                         1.083413      -0.302285
                                                         0.493050      -0.146467
                                                         0.171157      -0.013670
                                                         0.057249      -0.000239

     RI Auxiliary Basis Set             RI_aug-DZVP-MOLOPT-GTH_N_RI_092_s_p_d_f_

       Number of orbital shell sets:                                          20
       Number of orbital shells:                                              20
       Number of primitive Cartesian functions:                               20
       Number of Cartesian basis functions:                                  134
       Number of spherical basis functions:                                   92
       Norm type:                                                              2

       Normalised Cartesian orbitals:

                        Set   Shell   Orbital            Exponent    Coefficient

                          1       1    1s                0.142035       0.164895

                          2       1   11dx2              0.197501       0.096306
                          2       1   11dxy              0.197501       0.166808
                          2       1   11dxz              0.197501       0.166808
                          2       1   11dy2              0.197501       0.096306
                          2       1   11dyz              0.197501       0.166808
                          2       1   11dz2              0.197501       0.096306

                          3       1    7px               0.230383       0.227512
                          3       1    7py               0.230383       0.227512
                          3       1    7pz               0.230383       0.227512

                          4       1    2s                0.275120       0.270740

                          5       1   12dx2              0.477974       0.452238
                          5       1   12dxy              0.477974       0.783299
                          5       1   12dxz              0.477974       0.783299
                          5       1   12dy2              0.477974       0.452238
                          5       1   12dyz              0.477974       0.783299
                          5       1   12dz2              0.477974       0.452238

                          6       1    3s                0.540579       0.449318

                          7       1    8px               0.545327       0.667977
                          7       1    8py               0.545327       0.667977
                          7       1    8pz               0.545327       0.667977

                          8       1   19hx5              0.654165       0.186779
                          8       1   19hx4y             0.654165       0.560337
                          8       1   19hx4z             0.654165       0.560337
                          8       1   19hx3y2            0.654165       0.855929
                          8       1   19hx3yz            0.654165       1.482513
                          8       1   19hx3z2            0.654165       0.855929
                          8       1   19hx2y3            0.654165       0.855929
                          8       1   19hx2y2z           0.654165       1.913916
                          8       1   19hx2yz2           0.654165       1.913916
                          8       1   19hx2z3            0.654165       0.855929
                          8       1   19hxy4             0.654165       0.560337
                          8       1   19hxy3z            0.654165       1.482513
                          8       1   19hxy2z2           0.654165       1.913916
                          8       1   19hxyz3            0.654165       1.482513
                          8       1   19hxz4             0.654165       0.560337
                          8       1   19hy5              0.654165       0.186779
                          8       1   19hy4z             0.654165       0.560337
                          8       1   19hy3z2            0.654165       0.855929
                          8       1   19hy2z3            0.654165       0.855929
                          8       1   19hyz4             0.654165       0.560337
                          8       1   19hz5              0.654165       0.186779

                          9       1   15fx3              0.743342       0.755316
                          9       1   15fx2y             0.743342       1.688938
                          9       1   15fx2z             0.743342       1.688938
                          9       1   15fxy2             0.743342       1.688938
                          9       1   15fxyz             0.743342       2.925326
                          9       1   15fxz2             0.743342       1.688938
                          9       1   15fy3              0.743342       0.755316
                          9       1   15fy2z             0.743342       1.688938
                          9       1   15fyz2             0.743342       1.688938
                          9       1   15fz3              0.743342       0.755316

                         10       1   17gx4              0.833750       0.674970
                         10       1   17gx3y             0.833750       1.785802
                         10       1   17gx3z             0.833750       1.785802
                         10       1   17gx2y2            0.833750       2.305460
                         10       1   17gx2yz            0.833750       3.993174
                         10       1   17gx2z2            0.833750       2.305460
                         10       1   17gxy3             0.833750       1.785802
                         10       1   17gxy2z            0.833750       3.993174
                         10       1   17gxyz2            0.833750       3.993174
                         10       1   17gxz3             0.833750       1.785802
                         10       1   17gy4              0.833750       0.674970
                         10       1   17gy3z             0.833750       1.785802
                         10       1   17gy2z2            0.833750       2.305460
                         10       1   17gyz3             0.833750       1.785802
                         10       1   17gz4              0.833750       0.674970

                         11       1    4s                1.090592       0.760601

                         12       1   13dx2              1.134751       2.053455
                         12       1   13dxy              1.134751       3.556688
[...]
 Chulkov, M. H. Bani-Hashemian, V. Weber, U. Borstnik, M. Taillefumier, A. S. 
 Jakobovits, A. Lazzaro, H. Pabst, T. Mueller, R. Schade, M. Guidon, S. 
 Andermatt, N. Holmberg, G. K. Schenter, A. Hehn, A. Bussy, F. Belleflamme, G. 
 Tabacchi, A. Gloess, M. Lass, I. Bethune, C. J. Mundy, C. Plessl, M. Watkins, 
 J. VandeVondele, M. Krack, J. Hutter.
 J. Chem. Phys. 152, 194103 (2020).
 CP2K: An electronic structure and molecular dynamics software package - 
 Quickstep: Efficient and accurate electronic structure calculations.
 https://doi.org/10.1063/5.0007045

 O. Schuett, P. Messmer, J. Hutter, J. VandeVondele.
 Electronic Structure Calculations on Graphics Processing Units, 173-190 (2016).
 GPU-Accelerated Sparse Matrix-Matrix Multiplication for Linear Scaling Density 
 Functional Theory.
 https://doi.org/10.1002/9781118670712.ch8

 J. Hutter, M. Iannuzzi, F. Schiffmann, J. VandeVondele.
 WIREs Comput Mol Sci. 4, 15-25 (2014).
 CP2K: atomistic simulations of condensed matter systems.
 https://doi.org/10.1002/wcms.1159

 U. Borstnik, J. VandeVondele, V. Weber, J. Hutter.
 Parallel Comput. 40, 47-58 (2014).
 Sparse matrix multiplication: The distributed block-compressed sparse row 
 library.
 https://doi.org/10.1016/j.parco.2014.03.012

 J. VandeVondele, J. Hutter.
 J. Chem. Phys. 127, 114105 (2007).
 Gaussian basis sets for accurate calculations on molecular systems in gas and 
 condensed phases.
 https://doi.org/10.1063/1.2770708

 M. Krack.
 Theor. Chem. Acc. 114, 145-152 (2005).
 Pseudopotentials for H to Kr optimized for gradient-corrected 
 exchange-correlation functionals.
 https://doi.org/10.1007/s00214-005-0655-y

 M. Frigo, S. G. Johnson.
 Proc. IEEE 93, 216-231 (2005).
 The design and implementation of FFTW3.
 https://doi.org/10.1109/JPROC.2004.840301

 M. Krack, M. Parrinello.
 Phys. Chem. Chem. Phys. 2, 2105-2112 (2000).
 All-electron ab-initio molecular dynamics.
 https://doi.org/10.1039/b001167n

 G. Lippert, J. Hutter, M. Parrinello.
 Theor. Chem. Acc. 103, 124-140 (1999).
 The Gaussian and augmented-plane-wave density functional method for ab initio 
 molecular dynamics simulations.
 https://doi.org/10.1007/s002140050523

 C. Hartwigsen, S. Goedecker, J. Hutter.
 Phys. Rev. B 58, 3641-3662 (1998).
 Relativistic separable dual-space Gaussian pseudopotentials from H to Rn.
 https://doi.org/10.1103/PhysRevB.58.3641

 S. Goedecker, M. Teter, J. Hutter.
 Phys. Rev. B 54, 1703-1710 (1996).
 Separable dual-space Gaussian pseudopotentials.
 https://doi.org/10.1103/PhysRevB.54.1703

 J. P. Perdew, K. Burke, M. Ernzerhof.
 Phys. Rev. Lett. 77, 3865-3868 (1996).
 Generalized gradient approximation made simple.
 https://doi.org/10.1103/PhysRevLett.77.3865


 -------------------------------------------------------------------------------
 -                                                                             -
 -                                T I M I N G                                  -
 -                                                                             -
 -------------------------------------------------------------------------------
 SUBROUTINE                       CALLS  ASD         SELF TIME        TOTAL TIME
                                MAXIMUM       AVERAGE  MAXIMUM  AVERAGE  MAXIMUM
 CP2K                                 1  1.0     0.01     0.02 42200.44 42200.44
 qs_energies                          1  2.0     0.00     0.00 42198.71 42198.92
 qs_energies_properties               1  3.0     0.00     0.00 41940.48 41940.70
 post_scf_bandstructure               1  4.0     0.00     0.00 41940.48 41940.70
 gw                                   1  5.0     0.00     0.00 41847.64 41847.65
 gw_calc_small_cell_full_kp           1  6.0     0.01     0.01 41071.24 41071.25
 dbt_total                      *******  9.9    96.46   103.96 21342.59 22364.49
 dbt_contract                   ******* 10.6   157.48   170.47 16916.96 17656.96
 dbt_tas_multiply               6788034 13.0    16.34    18.52 15653.55 16363.05
 dbt_tas_total                  6788034 14.0   810.52   869.56 15643.18 16352.09
 compute_W_real_space                 1  7.0    44.53    45.00 15961.78 15961.99
 compute_Sigma_c                      1  7.0     0.01     0.01 14135.72 14135.76
 compute_Minv_and_Vsqrt               1  8.0     0.49     0.51 14021.05 14023.34
 build_2c_coulomb_matrix_kp_sma       2  9.0    15.75    17.14 13992.01 13992.11
 build_2c_coulomb_matrix_kp_sma  655360 10.0 12279.67 13223.40 12279.67 13223.40
 compute_chi                          1  7.0     0.15     0.17 10421.20 10421.32
 contract_to_Sigma                  488  8.0   133.80   154.92  8130.56  8639.42
 dbt_tas_dbm                    6788034 15.0    14.82    17.10  6808.56  7260.92
 dbm_multiply                   6788034 17.0  6775.05  7228.37  6775.05  7228.37
 contract_W                         248  8.0    19.06    20.20  5088.23  5640.11
 contract_M_occ_vir_to_chi          240  8.0   224.00   268.72  4434.45  5581.37
 dbt_copy                       ******* 11.1    89.90    99.51  4958.24  5344.57
 contract_to_Sigma_3c_x_G       5767489  9.0    14.49    15.69  4664.12  5154.99
 mp_sync                        ******* 11.9  3669.38  4931.01  3669.38  4931.01
 G_times_3c                       26220  8.0    23.42    24.47  4378.84  4680.70
 dbt_tas_estimate_result_nze    3394017 13.5  1211.93  1271.22  4351.56  4678.73
 dbt_reshape                    9286065 12.0  2763.65  3116.41  3614.59  4108.75
 contract_to_Sigma_contract       26657  9.0    26.51    29.06  3299.18  3687.48
 dbt_tas_mm_2                   2342952 16.1     6.43     7.73  2962.54  3513.11
 get_t_3c_int                   9005323  9.6    97.49   122.14  2559.09  2943.62
 dbt_tas_mm_3T                  2819198 16.2     4.47     5.36  2378.06  2585.54
 dbt_tas_reshape                7648872 15.5   109.26   126.30  1686.47  1829.84
 reshape_mm_small               6788034 15.0   656.43   684.84  1630.82  1705.21
 dbt_tas_mm_1N                  1866186 15.5     2.61     2.95  1449.68  1563.74
 convert_to_new_pgrid           ******* 15.0   140.97   158.98  1243.88  1310.51
 dbm_copy                       ******* 16.0  1102.91  1166.25  1102.91  1166.25
 dbm_reserve_blocks             ******* 16.6   971.97  1084.80   971.97  1084.80
 dbt_tas_reserve_blocks_index   ******* 15.7    44.03    46.58   954.58  1046.77
 dbt_tas_create_split           ******* 16.0    25.51    28.04   861.15   945.04
 dbt_tas_create_split_rows_or_c ******* 17.0   100.35   108.60   835.64   918.22
 dbt_remap                       464286 11.0    72.99    82.70   814.29   872.68
 reshape_mm_compatible          6788034 15.0   133.42   142.31   799.73   858.12
 dbt_tas_copy                   6147866 12.6   475.83   575.95   690.98   839.98
 dbt_tas_reshape_buffer_fill    7648872 16.5   765.25   830.79   765.25   830.79
 create_and_init_bs_env_for_gw        1  6.0     0.00     0.00   776.40   776.42
 dbt_tas_replicate              6788034 15.0   380.60   413.63   662.75   721.61
 compute_3c_integrals                 1  7.0     0.11     0.12   715.58   715.58
 build_3c_integrals                   1  8.0   633.73   698.36   650.09   714.72
 add_V_L                         327680 10.0    21.83   701.99    21.83   701.99
 dbt_reserve_blocks_index_array ******* 13.0    16.00    18.28   585.21   666.86
 add_rs_to_ikp                  *******  9.9   641.98   665.44   641.98   665.44
 dbt_reserve_blocks_index       ******* 14.0    21.04    24.65   584.13   664.96
 dbt_tas_distribution_new       ******* 15.8   316.03   351.86   589.22   653.66
 dbt_copy_nocomm                1953630 11.0   338.63   463.31   471.62   644.89
 trafo_rs_to_ikp                  10736  8.1     8.42     9.16   622.37   642.57
 dbt_tas_reshape_buffer_obtain  7648872 16.5   438.86   484.26   573.22   634.64
 add_ikp_to_rs                  *******  9.9   529.69   604.54   529.69   604.54
 change_split                   9321213 15.5    48.47    52.50   552.82   600.57
 add_ikp_to_all_rs                 9848  8.0     7.01     8.20   494.90   547.65
 mp_cart_create                 ******* 16.7   426.49   477.20   458.65   511.30
 dbt_communicate_buffer         9286065 13.0   373.16   449.90   373.16   449.90
 G_occ_vir                          121  8.0     0.51     0.61   433.89   436.91
 compute_Sigma_x                      1  7.0     0.01     0.01   435.37   435.40
 fm_to_local_array                  934  8.1   129.54   132.35   419.76   420.88
 dbt_tas_reserve_blocks_templat ******* 14.1    71.74    89.24   333.08   409.87
 dbcsr_complete_redistribute     416697  9.9    14.92    20.23   348.93   398.84
 fm_to_local_tensor              146072  9.0     3.36     3.83   380.85   380.91
 mp_sum_dm                       655403 10.0   350.88   364.45   350.88   364.45
 copy_dbcsr_to_fm                225358  8.3     2.63     2.79   330.55   335.97
 dbm_add                        6788034 15.0   302.42   326.80   302.42   326.80
 power                            20408  8.0    25.53    25.96   250.30   314.63
 mp_comm_dup                    ******* 18.6   260.21   289.36   275.18   306.09
 mp_sum_dm3                        1039  9.0   295.84   297.41   295.84   297.41
 diag_complex                     20408  9.0   224.77   288.67   224.77   288.67
 scf_env_do_scf                       1  3.0     0.00     0.00   258.01   258.01
 scf_env_do_scf_inner_loop           44  4.0     0.01     0.01   258.01   258.01
 qs_scf_new_mos_kp                   44  5.0     0.00     0.00   248.17   248.22
 do_general_diag_kp                  44  6.0     0.50     0.54   248.17   248.22
 dbt_tas_create_new             ******* 15.3   223.61   244.95   223.61   244.95
 mp_alltoall_i22                 746231 10.3   182.51   244.06   182.51   244.06
 dbt_permute_index              ******* 12.2   193.64   213.58   217.36   239.95
 dbt_tas_merge                  2342952 15.1   135.28   175.86   175.91   231.79
 global_matrix_to_local_matrix   146072 10.0     3.03     5.29   171.81   220.48
 copy_fm_to_dbcsr                191339  9.5     0.88     0.96   168.52   217.32
 dbt_tas_communicate_buffer     ******* 17.3   192.07   208.84   192.07   208.84
 mp_comm_split_direct           ******* 18.0   178.02   193.60   188.61   205.44
 dbcsr_desymmetrize_deep         329534  8.6     5.69     6.89   191.98   202.86
 mp_comm_free                   ******* 15.7   180.46   193.56   180.46   193.56
 dbt_tas_reshape_communicate_bu 7648872 16.5    11.32    13.03   172.60   190.63
 dbt_reserve_blocks_template    1953630 12.0     9.19    12.87   132.99   181.58
 local_dbt_to_global_fm              91  8.0     0.34     0.37   181.02   181.02
 dbt_align_index                ******* 11.5    27.07    29.96   166.23   177.21
 mp_waitall_1                   1156540 11.6   127.54   172.46   127.54   172.46
 send_data                       146072 11.0     0.19     0.22   129.96   171.31
 communicate_buffer              146072 12.0     2.82    24.96   129.77   171.13
 fm_add_ikp_to_rs                123904  9.0    77.86    79.97   119.69   166.85
 dbt_tas_mp_comm                3824436 13.2    16.01    18.02   137.20   154.88
 dbm_filter                     9979079 14.9   118.16   144.70   118.16   144.70
 add_R                          *******  9.3    93.09    99.42   126.04   134.29
 fm_MWM_R_t_to_local_tensor_W_R      30  8.0     0.05     0.06   133.94   133.95
 cp_cfm_gemm                     284468 10.9   113.63   130.32   113.63   130.32
 parallel_gemm_cfm               280952  8.9     0.26     0.29   113.40   130.11
 parallel_gemm_cfm_gemm          280952  9.9     0.26     0.32   113.14   129.85
 mult_W_with_Minv                    30  8.0     2.04     2.07   119.77   119.82
 compute_QP_energies                  1  7.0     0.07     0.12   117.16   117.21
 trafo_to_k_and_nn                71492  8.0     0.50     0.58   116.88   116.92
 mp_alltoall_d11v               2238693 10.7   107.84   115.41   107.84   115.41
 mp_alltoall_i11v               1579625 10.6   103.56   107.24   103.56   107.24
 dbt_destroy                    ******* 11.2    87.92    95.59    95.14   103.17
 reshape_mm_template             928572 15.5    50.91    54.33    91.84    99.87
 dbt_distribution_new_expert    1220726 12.2    15.50    17.25    84.89    97.10
 dbm_scale                      ******* 13.2    66.41    89.40    66.41    89.40
 get_data                        146072 11.0     7.41    83.73     7.83    84.21
 fm_trafo_rs_to_ikp               71492  9.0    46.41    47.73    74.44    83.18
 mp_cart_get                    *******  2.2    70.08    77.18    70.08    77.18
 get_V_tr_R                          34  9.0     0.19     0.21    74.08    74.17
 local_dbt_to_global_mat          87451  9.0     1.10     1.38    41.87    69.51
 dbcsr_finalize                 1726513 11.2    12.36    15.31    51.59    65.39
 mp_comm_size                   ******* -9.2    55.96    63.96    55.96    63.96
 cp_cfm_heevd                      4864  7.5     0.01     0.01    60.19    60.30
 cp_cfm_heevd_base                 4864  8.5    60.18    60.29    60.18    60.29
 is_cell_in_index_to_cell       *******  9.8    56.14    60.03    56.14    60.03
 local_matrix_to_global_matrix    87451 10.0     0.39     0.42    32.91    59.87
 mp_isend_dv                    ******* 12.4     2.13    53.96     2.13    53.96
 dbt_create_new                  610363 11.7    10.31    13.74    46.73    52.57
 hybrid_alltoall_any             329534  9.6     1.67     1.79    48.68    51.27
 dbt_tas_reshape_get_coord      7648872 16.5    44.73    50.56    44.73    50.56
 kpoint_density_transform            44  7.0     0.15     0.17    49.51    49.53
 mp_cart_sub                     450795 10.3    49.25    49.46    49.25    49.46
 dos_pdos_ldos                        1  5.0     0.01     0.01    46.90    47.11
 mp_comm_rank                   ******* -9.2    41.88    47.11    41.88    47.11
 SOC_ev                            2344  6.0     0.03     0.03    44.12    44.17
 dbcsr_filter_anytype            656131 11.0     4.61     5.15    32.54    43.43
 dbt_create_3c_R1_R2                 62  8.0     6.30     6.73    38.82    41.67
 mp_alltoall_i                  ******* 15.0    34.95    39.00    34.95    39.00
 dbt_create_template            3542740  9.0    34.49    37.77    34.49    37.77
 cp_fm_start_copy_general        135168  7.3     1.24     2.25    33.42    33.99
 dbt_create_matrix               146072 10.0     1.85     2.03    30.64    33.26
 dbcsr_merge_all                 642728 11.9    18.68    24.39    24.91    31.91
 create_and_init_bs_env               1  5.0     0.00     0.00    31.45    31.45
 compute_cfm_mo_coeff_kp_and_ei       1  6.0     0.01     0.01    31.45    31.45
 dbt_tas_replicate_communicate_ 4685384 15.9     6.66     7.27    29.10    31.44
 rskp_transform                   52088  7.2     0.74    29.20     0.74    29.20
 rsmat_to_kp                       7032  7.2     0.12     0.13    28.12    28.32
 mp_sum_l                       ******* 15.2    25.46    28.32    25.46    28.32
 mp_allgather_i                  270336  8.3    26.10    27.88    26.10    27.88
 set_blocks                       87451 11.0     1.95    14.41     9.78    27.84
 dbt_pgrid_create_expert        1220729 13.2     3.34     4.02    22.85    26.39
 heuristic_RI_regularization          1  7.0     0.00     0.00    25.36    25.36
 setup_cells_3c                       1  7.0     0.56     0.57    24.16    24.16
 destroy_t_2d                        62  8.0     5.59     7.35    22.34    23.86
 build_3c_integral_block          15957  8.0    15.77    16.67    22.37    23.59
 cp_cfm_geeig_canon                1172  7.0     0.01     0.01    21.64    21.69
 dbt_nd_mp_comm                  610358 11.7     2.50     2.88    17.51    20.14
 mp_sum_i                       6078526 15.9    15.28    18.78    15.28    18.78
 comm_data                        87451 11.0     0.42     2.34    12.47    18.56
 dbt_tas_reshape_alltoall       7648872 16.5     9.25    10.08    15.73    17.34
 dbt_tas_merge_communicate_buff 2342952 16.1     3.67     4.61    12.01    17.03
 send_sizes_1                    146072 11.0     0.19     0.21    12.05    15.71
 mp_isend_im2                   ******* 12.9     0.73    14.63     0.73    14.63
 mp_waitall_2                    174902 12.0    11.65    14.53    11.65    14.53
 soc                                  1  5.0     0.00     0.00    14.49    14.49
 H_KS_spinor_kp                       1  6.0     0.02     0.02    14.43    14.44
 mp_max_i                       ******* 11.6    12.75    14.41    12.75    14.41
 alloc_block_3c                       1  9.0     0.45     0.46    13.24    13.49
 dbcsr_work_create               972262 10.6     7.77     9.09    11.47    13.36
 dbt_distribution_destroy       1220726 12.2     9.00    10.90    11.08    13.29
 get_Minv_Vtr_Minv_R                  1  8.0     0.09     0.10    12.99    13.03
 dbcsr_iterator_start           3637706 11.1    11.20    11.72    12.35    12.89
 transform_dmat                   22528  8.0     0.30    12.04     0.30    12.04
 build_2c_integrals                  34 10.0     0.23     7.90     0.44    11.93
 mp_cart_rank                   9371224 15.9     9.38    11.74     9.38    11.74
 dbcsr_work_destroy_all          972262 11.5     6.47     7.99     9.25    11.18
 mp_bcast_i                     ******* 18.0     9.79    10.87     9.79    10.87
 dbt_copy_matrix_to_tensor       146072 10.0     3.89     4.35     9.24    10.10
 copy_fm_to_dbcsr_bc             191339 10.5     2.84     2.97     8.98     9.45
 dbt_buffer_get_index           ******* 16.8     8.15     9.34     8.15     9.34
 dbt_tas_replicate_alltoall     4685384 15.9     5.37     5.91     8.59     9.29
 mp_dims_create                 ******* 14.4     8.06     9.07     8.06     9.07
 send_sizes_2                    146072 11.0     0.19     0.21     7.30     8.83
 dbcsr_create_new               1356532 10.2     6.93     7.34     8.28     8.71
 mp_sum_dv                        78661  8.9     4.66     8.19     4.66     8.19
 fill_buffer                      87451 11.0     3.06     7.67     3.31     7.92
 reserve_blocks                  146072 11.0     0.77     0.85     7.40     7.85
 dbcsr_iterator_stop            3637706 11.1     6.30     6.57     7.22     7.49
 dbcsr_data_release             ******* 12.2     6.17     7.30     6.17     7.30
 dbt_tas_merge_alltoall         2342952 16.1     3.63     4.40     5.90     7.09
 abc_contract_xsmm                57896  9.0     6.16     6.58     6.16     6.58
 dbcsr_data_new                 ******* 11.6     5.57     6.35     5.57     6.35
 trafo_V_xc_R_to_kp                   1  7.0     0.01     0.01     5.51     5.56
 comm_size                        87451 11.0     0.14     0.16     4.88     5.06
 copy_dbcsr_to_fm_bc             225358  9.3     2.19     2.34     4.82     5.00
 qs_ks_update_qs_env                 44  5.0     0.00     0.00     4.88     4.93
 mp_bcast_iv                     540772  8.3     4.47     4.87     4.47     4.87
 dbcsr_reserve_blocks            562269 12.2     2.69     4.20     3.16     4.87
 dbcsr_destroy                  1249247  9.8     2.34     2.45     4.40     4.72
 qs_ks_build_kohn_sham_matrix        47  7.1     0.02     0.02     4.57     4.62
 rebuild_ks_matrix                   44  6.0     0.00     0.00     4.28     4.33
 -------------------------------------------------------------------------------

 The number of warnings for this run is : 2
 
 -------------------------------------------------------------------------------
  **** **** ******  **  PROGRAM ENDED AT                 2025-03-14 10:57:08.108
 ***** ** ***  *** **   PROGRAM RAN ON                              f01r01c01s01
 **    ****   ******    PROGRAM RAN BY                                   di38fab
 ***** **    ** ** **   PROGRAM PROCESS ID                               1484822
  **** **  *******  **  PROGRAM STOPPED IN /hppfs/scratch/04/di38fab/04_TMD/1_Mo
                                           S2_/DZVPnonaug/1e-3
