 DBCSR| CPU Multiplication driver                                           BLAS (U)
 DBCSR| Multrec recursion limit                                              512 (U)
 DBCSR| Multiplication stack size                                           1000 (D)
 DBCSR| Maximum elements for images                                    UNLIMITED (U)
 DBCSR| Multiplicative factor virtual images                                   1 (U)
 DBCSR| Use multiplication densification                                       T (D)
 DBCSR| Multiplication size stacks                                             3 (U)
 DBCSR| Use memory pool for CPU allocation                                     F (U)
 DBCSR| Number of 3D layers                                               SINGLE (U)
 DBCSR| Use MPI memory allocation                                              F (U)
 DBCSR| Use RMA algorithm                                                      F (U)
 DBCSR| Use Communication thread                                               T (U)
 DBCSR| Communication thread load                                             45 (D)
 DBCSR| MPI: My process id                                                     0
 DBCSR| MPI: Number of processes                                             128
 DBCSR| OMP: Current number of threads                                        12
 DBCSR| OMP: Max number of threads                                            12
 DBCSR| Split modifier for TAS multiplication algorithm                  1.0E+00 (U)


  **** **** ******  **  PROGRAM STARTED AT               2025-03-13 14:54:15.412
 ***** ** ***  *** **   PROGRAM STARTED ON                          f01r01c02s10
 **    ****   ******    PROGRAM STARTED BY                               di38fab
 ***** **    ** ** **   PROGRAM PROCESS ID                               1955245
  **** **  *******  **  PROGRAM STARTED IN /hppfs/scratch/04/di38fab/04_TMD/1_Mo
                                           S2_/DZVPnonaug

 CP2K| version string:                 CP2K version 2025.1 (Development Version)
 CP2K| source code revision number:                                  git:d2e611a
 CP2K| cp2kflags: omp libint fftw3 libxc parallel scalapack max_contr=4         
 CP2K| is freely available from                            https://www.cp2k.org/
 CP2K| Program compiled at                       Thu 06 Mar 2025 05:09:20 PM CET
 CP2K| Program compiled on                                               login02
 CP2K| Program compiled for                                        Supermuc-foss
 CP2K| Data directory path                  /hppfs/work/pn36zo/di38fab/cp2k/data
 CP2K| Input file name                                                    GW.inp

 GLOBAL| Force Environment number                                              1
 GLOBAL| Basis set file name                                        BASIS_MOLOPT
 GLOBAL| Potential file name            /hppfs/work/pn36zo/di38fab/cp2k/data/GTH
 GLOBAL| MM Potential file name                                     MM_POTENTIAL
 GLOBAL| Coordinate file name                                      __STD_INPUT__
 GLOBAL| Method name                                                        CP2K
 GLOBAL| Project name                                                       MoS2
 GLOBAL| Run type                                                         ENERGY
 GLOBAL| FFT library                                                       FFTW3
 GLOBAL| Diagonalization library                                       ScaLAPACK
 GLOBAL| DGEMM library                                                      BLAS
 GLOBAL| Orthonormality check for eigenvectors                          DISABLED
 GLOBAL| Matrix multiplication library                                 ScaLAPACK
 GLOBAL| All-to-all communication in single precision                          F
 GLOBAL| FFTs using library dependent lengths                                  F
 GLOBAL| Grid backend                                                       AUTO
 GLOBAL| Global print level                                               MEDIUM
 GLOBAL| MPI I/O enabled                                                       T
 GLOBAL| Total number of message passing processes                           128
 GLOBAL| Number of threads for this process                                   12
 GLOBAL| This output is from process                                           0
 GLOBAL| OpenMP stack size per thread (OMP_STACKSIZE)                    default
 GLOBAL| CPU model name             Intel(R) Xeon(R) Platinum 8174 CPU @ 3.10GHz

 MEMORY| system memory details [Kb]
 MEMORY|                        rank 0           min           max       average
 MEMORY| MemTotal            792068888     792068876     792069312     792068902
 MEMORY| MemFree             778800568     778447564     779883240     778669874
 MEMORY| Buffers                     0             0             0             0
 MEMORY| Cached                2328068       2305372       2346516       2321661
 MEMORY| Slab                  1150248        948048       1237184       1189822
 MEMORY| SReclaimable           246244        202924        273124        257623
 MEMORY| MemLikelyFree       781374880     781051108     782397160     781249159


 *** Fundamental physical constants (SI units) ***

 *** Literature: B. J. Mohr and B. N. Taylor,
 ***             CODATA recommended values of the fundamental physical
 ***             constants: 2006, Web Version 5.1
 ***             http://physics.nist.gov/constants

 Speed of light in vacuum [m/s]                             2.99792458000000E+08
 Magnetic constant or permeability of vacuum [N/A**2]       1.25663706143592E-06
 Electric constant or permittivity of vacuum [F/m]          8.85418781762039E-12
 Planck constant (h) [J*s]                                  6.62606896000000E-34
 Planck constant (h-bar) [J*s]                              1.05457162825177E-34
 Elementary charge [C]                                      1.60217648700000E-19
 Electron mass [kg]                                         9.10938215000000E-31
 Electron g factor [ ]                                     -2.00231930436220E+00
 Proton mass [kg]                                           1.67262163700000E-27
 Fine-structure constant                                    7.29735253760000E-03
 Rydberg constant [1/m]                                     1.09737315685270E+07
 Avogadro constant [1/mol]                                  6.02214179000000E+23
 Boltzmann constant [J/K]                                   1.38065040000000E-23
 Atomic mass unit [kg]                                      1.66053878200000E-27
 Bohr radius [m]                                            5.29177208590000E-11

 *** Conversion factors ***

 [u] -> [a.u.]                                              1.82288848426455E+03
 [Angstrom] -> [Bohr] = [a.u.]                              1.88972613288564E+00
 [a.u.] = [Bohr] -> [Angstrom]                              5.29177208590000E-01
 [a.u.] -> [s]                                              2.41888432650478E-17
 [a.u.] -> [fs]                                             2.41888432650478E-02
 [a.u.] -> [J]                                              4.35974393937059E-18
 [a.u.] -> [N]                                              8.23872205491840E-08
 [a.u.] -> [K]                                              3.15774647902944E+05
 [a.u.] -> [kJ/mol]                                         2.62549961709828E+03
 [a.u.] -> [kcal/mol]                                       6.27509468713739E+02
 [a.u.] -> [Pa]                                             2.94210107994716E+13
 [a.u.] -> [bar]                                            2.94210107994716E+08
 [a.u.] -> [atm]                                            2.90362800883016E+08
 [a.u.] -> [eV]                                             2.72113838565563E+01
 [a.u.] -> [Hz]                                             6.57968392072181E+15
 [a.u.] -> [1/cm] (wave numbers)                            2.19474631370540E+05
 [a.u./Bohr**2] -> [1/cm]                                   5.14048714338585E+03
 

 CELL_TOP| Volume [angstrom^3]:                                       131.694613
 CELL_TOP| Vector a [angstrom     3.184     0.000     0.000   |a| =     3.184000
 CELL_TOP| Vector b [angstrom    -1.592     2.757     0.000   |b| =     3.184000
 CELL_TOP| Vector c [angstrom     0.000     0.000    15.000   |c| =    15.000000
 CELL_TOP| Angle (b,c), alpha [degree]:                                90.000000
 CELL_TOP| Angle (a,c), beta  [degree]:                                90.000000
 CELL_TOP| Angle (a,b), gamma [degree]:                               120.000000
 CELL_TOP| Numerically orthorhombic:                                          NO
 CELL_TOP| Periodicity                                                        XY

 GENERATE|  Preliminary Number of Bonds generated:                             0
 GENERATE|  Achieved consistency in connectivity generation.

 CELL| Volume [angstrom^3]:                                           131.694613
 CELL| Vector a [angstrom]:       3.184     0.000     0.000   |a| =     3.184000
 CELL| Vector b [angstrom]:      -1.592     2.757     0.000   |b| =     3.184000
 CELL| Vector c [angstrom]:       0.000     0.000    15.000   |c| =    15.000000
 CELL| Angle (b,c), alpha [degree]:                                    90.000000
 CELL| Angle (a,c), beta  [degree]:                                    90.000000
 CELL| Angle (a,b), gamma [degree]:                                   120.000000
 CELL| Numerically orthorhombic:                                              NO
 CELL| Periodicity                                                            XY

 CELL_REF| Volume [angstrom^3]:                                       131.694613
 CELL_REF| Vector a [angstrom     3.184     0.000     0.000   |a| =     3.184000
 CELL_REF| Vector b [angstrom    -1.592     2.757     0.000   |b| =     3.184000
 CELL_REF| Vector c [angstrom     0.000     0.000    15.000   |c| =    15.000000
 CELL_REF| Angle (b,c), alpha [degree]:                                90.000000
 CELL_REF| Angle (a,c), beta  [degree]:                                90.000000
 CELL_REF| Angle (a,b), gamma [degree]:                               120.000000
 CELL_REF| Numerically orthorhombic:                                          NO
 CELL_REF| Periodicity                                                        XY

 *** WARNING in cryssym.F:180 :: Symmetry library SPGLIB not available ***


 *******************************************************************************
                                    Kpoints
 *******************************************************************************
 BRILLOUIN| K-point scheme                                        Monkhorst-Pack
 BRILLOUIN| K-Point grid                                            32   32    1
 BRILLOUIN| Accuracy in Symmetry determination                      0.100000E-05
 BRILLOUIN| K-Point point group symmetrization                               OFF
 BRILLOUIN| Wavefunction type                                            COMPLEX
 BRILLOUIN| List of Kpoints [2 Pi/Bohr]                                      512
 BRILLOUIN| Number           Weight            X              Y              Z
 BRILLOUIN|     1           0.00195       -0.48438       -0.48438        0.00000
 BRILLOUIN|     2           0.00195       -0.48438       -0.45312        0.00000
 BRILLOUIN|     3           0.00195       -0.48438       -0.42188        0.00000
 BRILLOUIN|     4           0.00195       -0.48438       -0.39062        0.00000
 BRILLOUIN|     5           0.00195       -0.48438       -0.35938        0.00000
 BRILLOUIN|     6           0.00195       -0.48438       -0.32812        0.00000
 BRILLOUIN|     7           0.00195       -0.48438       -0.29688        0.00000
 BRILLOUIN|     8           0.00195       -0.48438       -0.26562        0.00000
 BRILLOUIN|     9           0.00195       -0.48438       -0.23438        0.00000
 BRILLOUIN|    10           0.00195       -0.48438       -0.20312        0.00000
 BRILLOUIN|    11           0.00195       -0.48438       -0.17188        0.00000
 BRILLOUIN|    12           0.00195       -0.48438       -0.14062        0.00000
 BRILLOUIN|    13           0.00195       -0.48438       -0.10938        0.00000
 BRILLOUIN|    14           0.00195       -0.48438       -0.07812        0.00000
 BRILLOUIN|    15           0.00195       -0.48438       -0.04688        0.00000
 BRILLOUIN|    16           0.00195       -0.48438       -0.01562        0.00000
 BRILLOUIN|    17           0.00195       -0.48438        0.01562        0.00000
 BRILLOUIN|    18           0.00195       -0.48438        0.04688        0.00000
 BRILLOUIN|    19           0.00195       -0.48438        0.07812        0.00000
 BRILLOUIN|    20           0.00195       -0.48438        0.10938        0.00000
 BRILLOUIN|    21           0.00195       -0.48438        0.14062        0.00000
 BRILLOUIN|    22           0.00195       -0.48438        0.17188        0.00000
 BRILLOUIN|    23           0.00195       -0.48438        0.20312        0.00000
 BRILLOUIN|    24           0.00195       -0.48438        0.23438        0.00000
 BRILLOUIN|    25           0.00195       -0.48438        0.26562        0.00000
 BRILLOUIN|    26           0.00195       -0.48438        0.29688        0.00000
 BRILLOUIN|    27           0.00195       -0.48438        0.32812        0.00000
 BRILLOUIN|    28           0.00195       -0.48438        0.35938        0.00000
 BRILLOUIN|    29           0.00195       -0.48438        0.39062        0.00000
 BRILLOUIN|    30           0.00195       -0.48438        0.42188        0.00000
 BRILLOUIN|    31           0.00195       -0.48438        0.45312        0.00000
 BRILLOUIN|    32           0.00195       -0.48438        0.48438        0.00000
 BRILLOUIN|    33           0.00195       -0.45312       -0.48438        0.00000
 BRILLOUIN|    34           0.00195       -0.45312       -0.45312        0.00000
 BRILLOUIN|    35           0.00195       -0.45312       -0.42188        0.00000
 BRILLOUIN|    36           0.00195       -0.45312       -0.39062        0.00000
 BRILLOUIN|    37           0.00195       -0.45312       -0.35938        0.00000
 BRILLOUIN|    38           0.00195       -0.45312       -0.32812        0.00000
 BRILLOUIN|    39           0.00195       -0.45312       -0.29688        0.00000
 BRILLOUIN|    40           0.00195       -0.45312       -0.26562        0.00000
 BRILLOUIN|    41           0.00195       -0.45312       -0.23438        0.00000
 BRILLOUIN|    42           0.00195       -0.45312       -0.20312        0.00000
 BRILLOUIN|    43           0.00195       -0.45312       -0.17188        0.00000
 BRILLOUIN|    44           0.00195       -0.45312       -0.14062        0.00000
 BRILLOUIN|    45           0.00195       -0.45312       -0.10938        0.00000
 BRILLOUIN|    46           0.00195       -0.45312       -0.07812        0.00000
 BRILLOUIN|    47           0.00195       -0.45312       -0.04688        0.00000
 BRILLOUIN|    48           0.00195       -0.45312       -0.01562        0.00000
 BRILLOUIN|    49           0.00195       -0.45312        0.01562        0.00000
 BRILLOUIN|    50           0.00195       -0.45312        0.04688        0.00000
 BRILLOUIN|    51           0.00195       -0.45312        0.07812        0.00000
 BRILLOUIN|    52           0.00195       -0.45312        0.10938        0.00000
 BRILLOUIN|    53           0.00195       -0.45312        0.14062        0.00000
 BRILLOUIN|    54           0.00195       -0.45312        0.17188        0.00000
 BRILLOUIN|    55           0.00195       -0.45312        0.20312        0.00000
 BRILLOUIN|    56           0.00195       -0.45312        0.23438        0.00000
 BRILLOUIN|    57           0.00195       -0.45312        0.26562        0.00000
 BRILLOUIN|    58           0.00195       -0.45312        0.29688        0.00000
 BRILLOUIN|    59           0.00195       -0.45312        0.32812        0.00000
 BRILLOUIN|    60           0.00195       -0.45312        0.35938        0.00000
 BRILLOUIN|    61           0.00195       -0.45312        0.39062        0.00000
 BRILLOUIN|    62           0.00195       -0.45312        0.42188        0.00000
 BRILLOUIN|    63           0.00195       -0.45312        0.45312        0.00000
 BRILLOUIN|    64           0.00195       -0.45312        0.48438        0.00000
 BRILLOUIN|    65           0.00195       -0.42188       -0.48438        0.00000
 BRILLOUIN|    66           0.00195       -0.42188       -0.45312        0.00000
 BRILLOUIN|    67           0.00195       -0.42188       -0.42188        0.00000
 BRILLOUIN|    68           0.00195       -0.42188       -0.39062        0.00000
 BRILLOUIN|    69           0.00195       -0.42188       -0.35938        0.00000
 BRILLOUIN|    70           0.00195       -0.42188       -0.32812        0.00000
 BRILLOUIN|    71           0.00195       -0.42188       -0.29688        0.00000
 BRILLOUIN|    72           0.00195       -0.42188       -0.26562        0.00000
 BRILLOUIN|    73           0.00195       -0.42188       -0.23438        0.00000
 BRILLOUIN|    74           0.00195       -0.42188       -0.20312        0.00000
 BRILLOUIN|    75           0.00195       -0.42188       -0.17188        0.00000
 BRILLOUIN|    76           0.00195       -0.42188       -0.14062        0.00000
 BRILLOUIN|    77           0.00195       -0.42188       -0.10938        0.00000
 BRILLOUIN|    78           0.00195       -0.42188       -0.07812        0.00000
 BRILLOUIN|    79           0.00195       -0.42188       -0.04688        0.00000
 BRILLOUIN|    80           0.00195       -0.42188       -0.01562        0.00000
 BRILLOUIN|    81           0.00195       -0.42188        0.01562        0.00000
 BRILLOUIN|    82           0.00195       -0.42188        0.04688        0.00000
 BRILLOUIN|    83           0.00195       -0.42188        0.07812        0.00000
 BRILLOUIN|    84           0.00195       -0.42188        0.10938        0.00000
 BRILLOUIN|    85           0.00195       -0.42188        0.14062        0.00000
 BRILLOUIN|    86           0.00195       -0.42188        0.17188        0.00000
 BRILLOUIN|    87           0.00195       -0.42188        0.20312        0.00000
 BRILLOUIN|    88           0.00195       -0.42188        0.23438        0.00000
 BRILLOUIN|    89           0.00195       -0.42188        0.26562        0.00000
 BRILLOUIN|    90           0.00195       -0.42188        0.29688        0.00000
 BRILLOUIN|    91           0.00195       -0.42188        0.32812        0.00000
 BRILLOUIN|    92           0.00195       -0.42188        0.35938        0.00000
 BRILLOUIN|    93           0.00195       -0.42188        0.39062        0.00000
 BRILLOUIN|    94           0.00195       -0.42188        0.42188        0.00000
 BRILLOUIN|    95           0.00195       -0.42188        0.45312        0.00000
 BRILLOUIN|    96           0.00195       -0.42188        0.48438        0.00000
 BRILLOUIN|    97           0.00195       -0.39062       -0.48438        0.00000
 BRILLOUIN|    98           0.00195       -0.39062       -0.45312        0.00000
 BRILLOUIN|    99           0.00195       -0.39062       -0.42188        0.00000
 BRILLOUIN|   100           0.00195       -0.39062       -0.39062        0.00000
 BRILLOUIN|   101           0.00195       -0.39062       -0.35938        0.00000
 BRILLOUIN|   102           0.00195       -0.39062       -0.32812        0.00000
 BRILLOUIN|   103           0.00195       -0.39062       -0.29688        0.00000
 BRILLOUIN|   104           0.00195       -0.39062       -0.26562        0.00000
 BRILLOUIN|   105           0.00195       -0.39062       -0.23438        0.00000
 BRILLOUIN|   106           0.00195       -0.39062       -0.20312        0.00000
 BRILLOUIN|   107           0.00195       -0.39062       -0.17188        0.00000
 BRILLOUIN|   108           0.00195       -0.39062       -0.14062        0.00000
 BRILLOUIN|   109           0.00195       -0.39062       -0.10938        0.00000
 BRILLOUIN|   110           0.00195       -0.39062       -0.07812        0.00000
 BRILLOUIN|   111           0.00195       -0.39062       -0.04688        0.00000
 BRILLOUIN|   112           0.00195       -0.39062       -0.01562        0.00000
 BRILLOUIN|   113           0.00195       -0.39062        0.01562        0.00000
 BRILLOUIN|   114           0.00195       -0.39062        0.04688        0.00000
 BRILLOUIN|   115           0.00195       -0.39062        0.07812        0.00000
 BRILLOUIN|   116           0.00195       -0.39062        0.10938        0.00000
 BRILLOUIN|   117           0.00195       -0.39062        0.14062        0.00000
 BRILLOUIN|   118           0.00195       -0.39062        0.17188        0.00000
 BRILLOUIN|   119           0.00195       -0.39062        0.20312        0.00000
 BRILLOUIN|   120           0.00195       -0.39062        0.23438        0.00000
 BRILLOUIN|   121           0.00195       -0.39062        0.26562        0.00000
 BRILLOUIN|   122           0.00195       -0.39062        0.29688        0.00000
 BRILLOUIN|   123           0.00195       -0.39062        0.32812        0.00000
 BRILLOUIN|   124           0.00195       -0.39062        0.35938        0.00000
 BRILLOUIN|   125           0.00195       -0.39062        0.39062        0.00000
 BRILLOUIN|   126           0.00195       -0.39062        0.42188        0.00000
 BRILLOUIN|   127           0.00195       -0.39062        0.45312        0.00000
 BRILLOUIN|   128           0.00195       -0.39062        0.48438        0.00000
 BRILLOUIN|   129           0.00195       -0.35938       -0.48438        0.00000
 BRILLOUIN|   130           0.00195       -0.35938       -0.45312        0.00000
 BRILLOUIN|   131           0.00195       -0.35938       -0.42188        0.00000
 BRILLOUIN|   132           0.00195       -0.35938       -0.39062        0.00000
 BRILLOUIN|   133           0.00195       -0.35938       -0.35938        0.00000
 BRILLOUIN|   134           0.00195       -0.35938       -0.32812        0.00000
 BRILLOUIN|   135           0.00195       -0.35938       -0.29688        0.00000
 BRILLOUIN|   136           0.00195       -0.35938       -0.26562        0.00000
 BRILLOUIN|   137           0.00195       -0.35938       -0.23438        0.00000
 BRILLOUIN|   138           0.00195       -0.35938       -0.20312        0.00000
 BRILLOUIN|   139           0.00195       -0.35938       -0.17188        0.00000
 BRILLOUIN|   140           0.00195       -0.35938       -0.14062        0.00000
 BRILLOUIN|   141           0.00195       -0.35938       -0.10938        0.00000
 BRILLOUIN|   142           0.00195       -0.35938       -0.07812        0.00000
 BRILLOUIN|   143           0.00195       -0.35938       -0.04688        0.00000
 BRILLOUIN|   144           0.00195       -0.35938       -0.01562        0.00000
 BRILLOUIN|   145           0.00195       -0.35938        0.01562        0.00000
 BRILLOUIN|   146           0.00195       -0.35938        0.04688        0.00000
 BRILLOUIN|   147           0.00195       -0.35938        0.07812        0.00000
 BRILLOUIN|   148           0.00195       -0.35938        0.10938        0.00000
 BRILLOUIN|   149           0.00195       -0.35938        0.14062        0.00000
 BRILLOUIN|   150           0.00195       -0.35938        0.17188        0.00000
 BRILLOUIN|   151           0.00195       -0.35938        0.20312        0.00000
 BRILLOUIN|   152           0.00195       -0.35938        0.23438        0.00000
 BRILLOUIN|   153           0.00195       -0.35938        0.26562        0.00000
 BRILLOUIN|   154           0.00195       -0.35938        0.29688        0.00000
 BRILLOUIN|   155           0.00195       -0.35938        0.32812        0.00000
 BRILLOUIN|   156           0.00195       -0.35938        0.35938        0.00000
 BRILLOUIN|   157           0.00195       -0.35938        0.39062        0.00000
 BRILLOUIN|   158           0.00195       -0.35938        0.42188        0.00000
 BRILLOUIN|   159           0.00195       -0.35938        0.45312        0.00000
 BRILLOUIN|   160           0.00195       -0.35938        0.48438        0.00000
 BRILLOUIN|   161           0.00195       -0.32812       -0.48438        0.00000
 BRILLOUIN|   162           0.00195       -0.32812       -0.45312        0.00000
 BRILLOUIN|   163           0.00195       -0.32812       -0.42188        0.00000
 BRILLOUIN|   164           0.00195       -0.32812       -0.39062        0.00000
 BRILLOUIN|   165           0.00195       -0.32812       -0.35938        0.00000
 BRILLOUIN|   166           0.00195       -0.32812       -0.32812        0.00000
 BRILLOUIN|   167           0.00195       -0.32812       -0.29688        0.00000
 BRILLOUIN|   168           0.00195       -0.32812       -0.26562        0.00000
 BRILLOUIN|   169           0.00195       -0.32812       -0.23438        0.00000
 BRILLOUIN|   170           0.00195       -0.32812       -0.20312        0.00000
 BRILLOUIN|   171           0.00195       -0.32812       -0.17188        0.00000
 BRILLOUIN|   172           0.00195       -0.32812       -0.14062        0.00000
 BRILLOUIN|   173           0.00195       -0.32812       -0.10938        0.00000
 BRILLOUIN|   174           0.00195       -0.32812       -0.07812        0.00000
 BRILLOUIN|   175           0.00195       -0.32812       -0.04688        0.00000
 BRILLOUIN|   176           0.00195       -0.32812       -0.01562        0.00000
 BRILLOUIN|   177           0.00195       -0.32812        0.01562        0.00000
 BRILLOUIN|   178           0.00195       -0.32812        0.04688        0.00000
 BRILLOUIN|   179           0.00195       -0.32812        0.07812        0.00000
 BRILLOUIN|   180           0.00195       -0.32812        0.10938        0.00000
 BRILLOUIN|   181           0.00195       -0.32812        0.14062        0.00000
 BRILLOUIN|   182           0.00195       -0.32812        0.17188        0.00000
 BRILLOUIN|   183           0.00195       -0.32812        0.20312        0.00000
 BRILLOUIN|   184           0.00195       -0.32812        0.23438        0.00000
 BRILLOUIN|   185           0.00195       -0.32812        0.26562        0.00000
 BRILLOUIN|   186           0.00195       -0.32812        0.29688        0.00000
 BRILLOUIN|   187           0.00195       -0.32812        0.32812        0.00000
 BRILLOUIN|   188           0.00195       -0.32812        0.35938        0.00000
 BRILLOUIN|   189           0.00195       -0.32812        0.39062        0.00000
 BRILLOUIN|   190           0.00195       -0.32812        0.42188        0.00000
 BRILLOUIN|   191           0.00195       -0.32812        0.45312        0.00000
 BRILLOUIN|   192           0.00195       -0.32812        0.48438        0.00000
 BRILLOUIN|   193           0.00195       -0.29688       -0.48438        0.00000
 BRILLOUIN|   194           0.00195       -0.29688       -0.45312        0.00000
 BRILLOUIN|   195           0.00195       -0.29688       -0.42188        0.00000
 BRILLOUIN|   196           0.00195       -0.29688       -0.39062        0.00000
 BRILLOUIN|   197           0.00195       -0.29688       -0.35938        0.00000
 BRILLOUIN|   198           0.00195       -0.29688       -0.32812        0.00000
 BRILLOUIN|   199           0.00195       -0.29688       -0.29688        0.00000
 BRILLOUIN|   200           0.00195       -0.29688       -0.26562        0.00000
 BRILLOUIN|   201           0.00195       -0.29688       -0.23438        0.00000
 BRILLOUIN|   202           0.00195       -0.29688       -0.20312        0.00000
 BRILLOUIN|   203           0.00195       -0.29688       -0.17188        0.00000
 BRILLOUIN|   204           0.00195       -0.29688       -0.14062        0.00000
 BRILLOUIN|   205           0.00195       -0.29688       -0.10938        0.00000
 BRILLOUIN|   206           0.00195       -0.29688       -0.07812        0.00000
 BRILLOUIN|   207           0.00195       -0.29688       -0.04688        0.00000
 BRILLOUIN|   208           0.00195       -0.29688       -0.01562        0.00000
 BRILLOUIN|   209           0.00195       -0.29688        0.01562        0.00000
 BRILLOUIN|   210           0.00195       -0.29688        0.04688        0.00000
 BRILLOUIN|   211           0.00195       -0.29688        0.07812        0.00000
 BRILLOUIN|   212           0.00195       -0.29688        0.10938        0.00000
 BRILLOUIN|   213           0.00195       -0.29688        0.14062        0.00000
 BRILLOUIN|   214           0.00195       -0.29688        0.17188        0.00000
 BRILLOUIN|   215           0.00195       -0.29688        0.20312        0.00000
 BRILLOUIN|   216           0.00195       -0.29688        0.23438        0.00000
 BRILLOUIN|   217           0.00195       -0.29688        0.26562        0.00000
 BRILLOUIN|   218           0.00195       -0.29688        0.29688        0.00000
 BRILLOUIN|   219           0.00195       -0.29688        0.32812        0.00000
 BRILLOUIN|   220           0.00195       -0.29688        0.35938        0.00000
 BRILLOUIN|   221           0.00195       -0.29688        0.39062        0.00000
 BRILLOUIN|   222           0.00195       -0.29688        0.42188        0.00000
 BRILLOUIN|   223           0.00195       -0.29688        0.45312        0.00000
 BRILLOUIN|   224           0.00195       -0.29688        0.48438        0.00000
 BRILLOUIN|   225           0.00195       -0.26562       -0.48438        0.00000
 BRILLOUIN|   226           0.00195       -0.26562       -0.45312        0.00000
 BRILLOUIN|   227           0.00195       -0.26562       -0.42188        0.00000
 BRILLOUIN|   228           0.00195       -0.26562       -0.39062        0.00000
 BRILLOUIN|   229           0.00195       -0.26562       -0.35938        0.00000
 BRILLOUIN|   230           0.00195       -0.26562       -0.32812        0.00000
 BRILLOUIN|   231           0.00195       -0.26562       -0.29688        0.00000
 BRILLOUIN|   232           0.00195       -0.26562       -0.26562        0.00000
 BRILLOUIN|   233           0.00195       -0.26562       -0.23438        0.00000
 BRILLOUIN|   234           0.00195       -0.26562       -0.20312        0.00000
 BRILLOUIN|   235           0.00195       -0.26562       -0.17188        0.00000
 BRILLOUIN|   236           0.00195       -0.26562       -0.14062        0.00000
 BRILLOUIN|   237           0.00195       -0.26562       -0.10938        0.00000
 BRILLOUIN|   238           0.00195       -0.26562       -0.07812        0.00000
 BRILLOUIN|   239           0.00195       -0.26562       -0.04688        0.00000
 BRILLOUIN|   240           0.00195       -0.26562       -0.01562        0.00000
 BRILLOUIN|   241           0.00195       -0.26562        0.01562        0.00000
 BRILLOUIN|   242           0.00195       -0.26562        0.04688        0.00000
 BRILLOUIN|   243           0.00195       -0.26562        0.07812        0.00000
 BRILLOUIN|   244           0.00195       -0.26562        0.10938        0.00000
 BRILLOUIN|   245           0.00195       -0.26562        0.14062        0.00000
 BRILLOUIN|   246           0.00195       -0.26562        0.17188        0.00000
 BRILLOUIN|   247           0.00195       -0.26562        0.20312        0.00000
 BRILLOUIN|   248           0.00195       -0.26562        0.23438        0.00000
 BRILLOUIN|   249           0.00195       -0.26562        0.26562        0.00000
 BRILLOUIN|   250           0.00195       -0.26562        0.29688        0.00000
 BRILLOUIN|   251           0.00195       -0.26562        0.32812        0.00000
 BRILLOUIN|   252           0.00195       -0.26562        0.35938        0.00000
 BRILLOUIN|   253           0.00195       -0.26562        0.39062        0.00000
 BRILLOUIN|   254           0.00195       -0.26562        0.42188        0.00000
 BRILLOUIN|   255           0.00195       -0.26562        0.45312        0.00000
 BRILLOUIN|   256           0.00195       -0.26562        0.48438        0.00000
 BRILLOUIN|   257           0.00195       -0.23438       -0.48438        0.00000
 BRILLOUIN|   258           0.00195       -0.23438       -0.45312        0.00000
 BRILLOUIN|   259           0.00195       -0.23438       -0.42188        0.00000
 BRILLOUIN|   260           0.00195       -0.23438       -0.39062        0.00000
 BRILLOUIN|   261           0.00195       -0.23438       -0.35938        0.00000
 BRILLOUIN|   262           0.00195       -0.23438       -0.32812        0.00000
 BRILLOUIN|   263           0.00195       -0.23438       -0.29688        0.00000
 BRILLOUIN|   264           0.00195       -0.23438       -0.26562        0.00000
 BRILLOUIN|   265           0.00195       -0.23438       -0.23438        0.00000
 BRILLOUIN|   266           0.00195       -0.23438       -0.20312        0.00000
 BRILLOUIN|   267           0.00195       -0.23438       -0.17188        0.00000
 BRILLOUIN|   268           0.00195       -0.23438       -0.14062        0.00000
 BRILLOUIN|   269           0.00195       -0.23438       -0.10938        0.00000
 BRILLOUIN|   270           0.00195       -0.23438       -0.07812        0.00000
 BRILLOUIN|   271           0.00195       -0.23438       -0.04688        0.00000
 BRILLOUIN|   272           0.00195       -0.23438       -0.01562        0.00000
 BRILLOUIN|   273           0.00195       -0.23438        0.01562        0.00000
 BRILLOUIN|   274           0.00195       -0.23438        0.04688        0.00000
 BRILLOUIN|   275           0.00195       -0.23438        0.07812        0.00000
 BRILLOUIN|   276           0.00195       -0.23438        0.10938        0.00000
 BRILLOUIN|   277           0.00195       -0.23438        0.14062        0.00000
 BRILLOUIN|   278           0.00195       -0.23438        0.17188        0.00000
 BRILLOUIN|   279           0.00195       -0.23438        0.20312        0.00000
 BRILLOUIN|   280           0.00195       -0.23438        0.23438        0.00000
 BRILLOUIN|   281           0.00195       -0.23438        0.26562        0.00000
 BRILLOUIN|   282           0.00195       -0.23438        0.29688        0.00000
 BRILLOUIN|   283           0.00195       -0.23438        0.32812        0.00000
 BRILLOUIN|   284           0.00195       -0.23438        0.35938        0.00000
 BRILLOUIN|   285           0.00195       -0.23438        0.39062        0.00000
 BRILLOUIN|   286           0.00195       -0.23438        0.42188        0.00000
 BRILLOUIN|   287           0.00195       -0.23438        0.45312        0.00000
 BRILLOUIN|   288           0.00195       -0.23438        0.48438        0.00000
 BRILLOUIN|   289           0.00195       -0.20312       -0.48438        0.00000
 BRILLOUIN|   290           0.00195       -0.20312       -0.45312        0.00000
 BRILLOUIN|   291           0.00195       -0.20312       -0.42188        0.00000
 BRILLOUIN|   292           0.00195       -0.20312       -0.39062        0.00000
 BRILLOUIN|   293           0.00195       -0.20312       -0.35938        0.00000
 BRILLOUIN|   294           0.00195       -0.20312       -0.32812        0.00000
 BRILLOUIN|   295           0.00195       -0.20312       -0.29688        0.00000
 BRILLOUIN|   296           0.00195       -0.20312       -0.26562        0.00000
 BRILLOUIN|   297           0.00195       -0.20312       -0.23438        0.00000
 BRILLOUIN|   298           0.00195       -0.20312       -0.20312        0.00000
 BRILLOUIN|   299           0.00195       -0.20312       -0.17188        0.00000
 BRILLOUIN|   300           0.00195       -0.20312       -0.14062        0.00000
 BRILLOUIN|   301           0.00195       -0.20312       -0.10938        0.00000
 BRILLOUIN|   302           0.00195       -0.20312       -0.07812        0.00000
 BRILLOUIN|   303           0.00195       -0.20312       -0.04688        0.00000
 BRILLOUIN|   304           0.00195       -0.20312       -0.01562        0.00000
 BRILLOUIN|   305           0.00195       -0.20312        0.01562        0.00000
 BRILLOUIN|   306           0.00195       -0.20312        0.04688        0.00000
 BRILLOUIN|   307           0.00195       -0.20312        0.07812        0.00000
 BRILLOUIN|   308           0.00195       -0.20312        0.10938        0.00000
 BRILLOUIN|   309           0.00195       -0.20312        0.14062        0.00000
 BRILLOUIN|   310           0.00195       -0.20312        0.17188        0.00000
 BRILLOUIN|   311           0.00195       -0.20312        0.20312        0.00000
 BRILLOUIN|   312           0.00195       -0.20312        0.23438        0.00000
 BRILLOUIN|   313           0.00195       -0.20312        0.26562        0.00000
 BRILLOUIN|   314           0.00195       -0.20312        0.29688        0.00000
 BRILLOUIN|   315           0.00195       -0.20312        0.32812        0.00000
 BRILLOUIN|   316           0.00195       -0.20312        0.35938        0.00000
 BRILLOUIN|   317           0.00195       -0.20312        0.39062        0.00000
 BRILLOUIN|   318           0.00195       -0.20312        0.42188        0.00000
 BRILLOUIN|   319           0.00195       -0.20312        0.45312        0.00000
 BRILLOUIN|   320           0.00195       -0.20312        0.48438        0.00000
 BRILLOUIN|   321           0.00195       -0.17188       -0.48438        0.00000
 BRILLOUIN|   322           0.00195       -0.17188       -0.45312        0.00000
 BRILLOUIN|   323           0.00195       -0.17188       -0.42188        0.00000
 BRILLOUIN|   324           0.00195       -0.17188       -0.39062        0.00000
 BRILLOUIN|   325           0.00195       -0.17188       -0.35938        0.00000
 BRILLOUIN|   326           0.00195       -0.17188       -0.32812        0.00000
 BRILLOUIN|   327           0.00195       -0.17188       -0.29688        0.00000
 BRILLOUIN|   328           0.00195       -0.17188       -0.26562        0.00000
 BRILLOUIN|   329           0.00195       -0.17188       -0.23438        0.00000
 BRILLOUIN|   330           0.00195       -0.17188       -0.20312        0.00000
 BRILLOUIN|   331           0.00195       -0.17188       -0.17188        0.00000
 BRILLOUIN|   332           0.00195       -0.17188       -0.14062        0.00000
 BRILLOUIN|   333           0.00195       -0.17188       -0.10938        0.00000
 BRILLOUIN|   334           0.00195       -0.17188       -0.07812        0.00000
 BRILLOUIN|   335           0.00195       -0.17188       -0.04688        0.00000
 BRILLOUIN|   336           0.00195       -0.17188       -0.01562        0.00000
 BRILLOUIN|   337           0.00195       -0.17188        0.01562        0.00000
 BRILLOUIN|   338           0.00195       -0.17188        0.04688        0.00000
 BRILLOUIN|   339           0.00195       -0.17188        0.07812        0.00000
 BRILLOUIN|   340           0.00195       -0.17188        0.10938        0.00000
 BRILLOUIN|   341           0.00195       -0.17188        0.14062        0.00000
 BRILLOUIN|   342           0.00195       -0.17188        0.17188        0.00000
 BRILLOUIN|   343           0.00195       -0.17188        0.20312        0.00000
 BRILLOUIN|   344           0.00195       -0.17188        0.23438        0.00000
 BRILLOUIN|   345           0.00195       -0.17188        0.26562        0.00000
 BRILLOUIN|   346           0.00195       -0.17188        0.29688        0.00000
 BRILLOUIN|   347           0.00195       -0.17188        0.32812        0.00000
 BRILLOUIN|   348           0.00195       -0.17188        0.35938        0.00000
 BRILLOUIN|   349           0.00195       -0.17188        0.39062        0.00000
 BRILLOUIN|   350           0.00195       -0.17188        0.42188        0.00000
 BRILLOUIN|   351           0.00195       -0.17188        0.45312        0.00000
 BRILLOUIN|   352           0.00195       -0.17188        0.48438        0.00000
 BRILLOUIN|   353           0.00195       -0.14062       -0.48438        0.00000
 BRILLOUIN|   354           0.00195       -0.14062       -0.45312        0.00000
 BRILLOUIN|   355           0.00195       -0.14062       -0.42188        0.00000
 BRILLOUIN|   356           0.00195       -0.14062       -0.39062        0.00000
 BRILLOUIN|   357           0.00195       -0.14062       -0.35938        0.00000
 BRILLOUIN|   358           0.00195       -0.14062       -0.32812        0.00000
 BRILLOUIN|   359           0.00195       -0.14062       -0.29688        0.00000
 BRILLOUIN|   360           0.00195       -0.14062       -0.26562        0.00000
 BRILLOUIN|   361           0.00195       -0.14062       -0.23438        0.00000
 BRILLOUIN|   362           0.00195       -0.14062       -0.20312        0.00000
 BRILLOUIN|   363           0.00195       -0.14062       -0.17188        0.00000
 BRILLOUIN|   364           0.00195       -0.14062       -0.14062        0.00000
 BRILLOUIN|   365           0.00195       -0.14062       -0.10938        0.00000
 BRILLOUIN|   366           0.00195       -0.14062       -0.07812        0.00000
 BRILLOUIN|   367           0.00195       -0.14062       -0.04688        0.00000
 BRILLOUIN|   368           0.00195       -0.14062       -0.01562        0.00000
 BRILLOUIN|   369           0.00195       -0.14062        0.01562        0.00000
 BRILLOUIN|   370           0.00195       -0.14062        0.04688        0.00000
 BRILLOUIN|   371           0.00195       -0.14062        0.07812        0.00000
 BRILLOUIN|   372           0.00195       -0.14062        0.10938        0.00000
 BRILLOUIN|   373           0.00195       -0.14062        0.14062        0.00000
 BRILLOUIN|   374           0.00195       -0.14062        0.17188        0.00000
 BRILLOUIN|   375           0.00195       -0.14062        0.20312        0.00000
 BRILLOUIN|   376           0.00195       -0.14062        0.23438        0.00000
 BRILLOUIN|   377           0.00195       -0.14062        0.26562        0.00000
 BRILLOUIN|   378           0.00195       -0.14062        0.29688        0.00000
 BRILLOUIN|   379           0.00195       -0.14062        0.32812        0.00000
 BRILLOUIN|   380           0.00195       -0.14062        0.35938        0.00000
 BRILLOUIN|   381           0.00195       -0.14062        0.39062        0.00000
 BRILLOUIN|   382           0.00195       -0.14062        0.42188        0.00000
 BRILLOUIN|   383           0.00195       -0.14062        0.45312        0.00000
 BRILLOUIN|   384           0.00195       -0.14062        0.48438        0.00000
 BRILLOUIN|   385           0.00195       -0.10938       -0.48438        0.00000
 BRILLOUIN|   386           0.00195       -0.10938       -0.45312        0.00000
 BRILLOUIN|   387           0.00195       -0.10938       -0.42188        0.00000
 BRILLOUIN|   388           0.00195       -0.10938       -0.39062        0.00000
 BRILLOUIN|   389           0.00195       -0.10938       -0.35938        0.00000
 BRILLOUIN|   390           0.00195       -0.10938       -0.32812        0.00000
 BRILLOUIN|   391           0.00195       -0.10938       -0.29688        0.00000
 BRILLOUIN|   392           0.00195       -0.10938       -0.26562        0.00000
 BRILLOUIN|   393           0.00195       -0.10938       -0.23438        0.00000
 BRILLOUIN|   394           0.00195       -0.10938       -0.20312        0.00000
 BRILLOUIN|   395           0.00195       -0.10938       -0.17188        0.00000
 BRILLOUIN|   396           0.00195       -0.10938       -0.14062        0.00000
 BRILLOUIN|   397           0.00195       -0.10938       -0.10938        0.00000
 BRILLOUIN|   398           0.00195       -0.10938       -0.07812        0.00000
 BRILLOUIN|   399           0.00195       -0.10938       -0.04688        0.00000
 BRILLOUIN|   400           0.00195       -0.10938       -0.01562        0.00000
 BRILLOUIN|   401           0.00195       -0.10938        0.01562        0.00000
 BRILLOUIN|   402           0.00195       -0.10938        0.04688        0.00000
 BRILLOUIN|   403           0.00195       -0.10938        0.07812        0.00000
 BRILLOUIN|   404           0.00195       -0.10938        0.10938        0.00000
 BRILLOUIN|   405           0.00195       -0.10938        0.14062        0.00000
 BRILLOUIN|   406           0.00195       -0.10938        0.17188        0.00000
 BRILLOUIN|   407           0.00195       -0.10938        0.20312        0.00000
 BRILLOUIN|   408           0.00195       -0.10938        0.23438        0.00000
 BRILLOUIN|   409           0.00195       -0.10938        0.26562        0.00000
 BRILLOUIN|   410           0.00195       -0.10938        0.29688        0.00000
 BRILLOUIN|   411           0.00195       -0.10938        0.32812        0.00000
 BRILLOUIN|   412           0.00195       -0.10938        0.35938        0.00000
 BRILLOUIN|   413           0.00195       -0.10938        0.39062        0.00000
 BRILLOUIN|   414           0.00195       -0.10938        0.42188        0.00000
 BRILLOUIN|   415           0.00195       -0.10938        0.45312        0.00000
 BRILLOUIN|   416           0.00195       -0.10938        0.48438        0.00000
 BRILLOUIN|   417           0.00195       -0.07812       -0.48438        0.00000
 BRILLOUIN|   418           0.00195       -0.07812       -0.45312        0.00000
 BRILLOUIN|   419           0.00195       -0.07812       -0.42188        0.00000
 BRILLOUIN|   420           0.00195       -0.07812       -0.39062        0.00000
 BRILLOUIN|   421           0.00195       -0.07812       -0.35938        0.00000
 BRILLOUIN|   422           0.00195       -0.07812       -0.32812        0.00000
 BRILLOUIN|   423           0.00195       -0.07812       -0.29688        0.00000
 BRILLOUIN|   424           0.00195       -0.07812       -0.26562        0.00000
 BRILLOUIN|   425           0.00195       -0.07812       -0.23438        0.00000
 BRILLOUIN|   426           0.00195       -0.07812       -0.20312        0.00000
 BRILLOUIN|   427           0.00195       -0.07812       -0.17188        0.00000
 BRILLOUIN|   428           0.00195       -0.07812       -0.14062        0.00000
 BRILLOUIN|   429           0.00195       -0.07812       -0.10938        0.00000
 BRILLOUIN|   430           0.00195       -0.07812       -0.07812        0.00000
 BRILLOUIN|   431           0.00195       -0.07812       -0.04688        0.00000
 BRILLOUIN|   432           0.00195       -0.07812       -0.01562        0.00000
 BRILLOUIN|   433           0.00195       -0.07812        0.01562        0.00000
 BRILLOUIN|   434           0.00195       -0.07812        0.04688        0.00000
 BRILLOUIN|   435           0.00195       -0.07812        0.07812        0.00000
 BRILLOUIN|   436           0.00195       -0.07812        0.10938        0.00000
 BRILLOUIN|   437           0.00195       -0.07812        0.14062        0.00000
 BRILLOUIN|   438           0.00195       -0.07812        0.17188        0.00000
 BRILLOUIN|   439           0.00195       -0.07812        0.20312        0.00000
 BRILLOUIN|   440           0.00195       -0.07812        0.23438        0.00000
 BRILLOUIN|   441           0.00195       -0.07812        0.26562        0.00000
 BRILLOUIN|   442           0.00195       -0.07812        0.29688        0.00000
 BRILLOUIN|   443           0.00195       -0.07812        0.32812        0.00000
 BRILLOUIN|   444           0.00195       -0.07812        0.35938        0.00000
 BRILLOUIN|   445           0.00195       -0.07812        0.39062        0.00000
 BRILLOUIN|   446           0.00195       -0.07812        0.42188        0.00000
 BRILLOUIN|   447           0.00195       -0.07812        0.45312        0.00000
 BRILLOUIN|   448           0.00195       -0.07812        0.48438        0.00000
 BRILLOUIN|   449           0.00195       -0.04688       -0.48438        0.00000
 BRILLOUIN|   450           0.00195       -0.04688       -0.45312        0.00000
 BRILLOUIN|   451           0.00195       -0.04688       -0.42188        0.00000
 BRILLOUIN|   452           0.00195       -0.04688       -0.39062        0.00000
 BRILLOUIN|   453           0.00195       -0.04688       -0.35938        0.00000
 BRILLOUIN|   454           0.00195       -0.04688       -0.32812        0.00000
 BRILLOUIN|   455           0.00195       -0.04688       -0.29688        0.00000
 BRILLOUIN|   456           0.00195       -0.04688       -0.26562        0.00000
 BRILLOUIN|   457           0.00195       -0.04688       -0.23438        0.00000
 BRILLOUIN|   458           0.00195       -0.04688       -0.20312        0.00000
 BRILLOUIN|   459           0.00195       -0.04688       -0.17188        0.00000
 BRILLOUIN|   460           0.00195       -0.04688       -0.14062        0.00000
 BRILLOUIN|   461           0.00195       -0.04688       -0.10938        0.00000
 BRILLOUIN|   462           0.00195       -0.04688       -0.07812        0.00000
 BRILLOUIN|   463           0.00195       -0.04688       -0.04688        0.00000
 BRILLOUIN|   464           0.00195       -0.04688       -0.01562        0.00000
 BRILLOUIN|   465           0.00195       -0.04688        0.01562        0.00000
 BRILLOUIN|   466           0.00195       -0.04688        0.04688        0.00000
 BRILLOUIN|   467           0.00195       -0.04688        0.07812        0.00000
 BRILLOUIN|   468           0.00195       -0.04688        0.10938        0.00000
 BRILLOUIN|   469           0.00195       -0.04688        0.14062        0.00000
 BRILLOUIN|   470           0.00195       -0.04688        0.17188        0.00000
 BRILLOUIN|   471           0.00195       -0.04688        0.20312        0.00000
 BRILLOUIN|   472           0.00195       -0.04688        0.23438        0.00000
 BRILLOUIN|   473           0.00195       -0.04688        0.26562        0.00000
 BRILLOUIN|   474           0.00195       -0.04688        0.29688        0.00000
 BRILLOUIN|   475           0.00195       -0.04688        0.32812        0.00000
 BRILLOUIN|   476           0.00195       -0.04688        0.35938        0.00000
 BRILLOUIN|   477           0.00195       -0.04688        0.39062        0.00000
 BRILLOUIN|   478           0.00195       -0.04688        0.42188        0.00000
 BRILLOUIN|   479           0.00195       -0.04688        0.45312        0.00000
 BRILLOUIN|   480           0.00195       -0.04688        0.48438        0.00000
 BRILLOUIN|   481           0.00195       -0.01562       -0.48438        0.00000
 BRILLOUIN|   482           0.00195       -0.01562       -0.45312        0.00000
 BRILLOUIN|   483           0.00195       -0.01562       -0.42188        0.00000
 BRILLOUIN|   484           0.00195       -0.01562       -0.39062        0.00000
 BRILLOUIN|   485           0.00195       -0.01562       -0.35938        0.00000
 BRILLOUIN|   486           0.00195       -0.01562       -0.32812        0.00000
 BRILLOUIN|   487           0.00195       -0.01562       -0.29688        0.00000
 BRILLOUIN|   488           0.00195       -0.01562       -0.26562        0.00000
 BRILLOUIN|   489           0.00195       -0.01562       -0.23438        0.00000
 BRILLOUIN|   490           0.00195       -0.01562       -0.20312        0.00000
 BRILLOUIN|   491           0.00195       -0.01562       -0.17188        0.00000
 BRILLOUIN|   492           0.00195       -0.01562       -0.14062        0.00000
 BRILLOUIN|   493           0.00195       -0.01562       -0.10938        0.00000
 BRILLOUIN|   494           0.00195       -0.01562       -0.07812        0.00000
 BRILLOUIN|   495           0.00195       -0.01562       -0.04688        0.00000
 BRILLOUIN|   496           0.00195       -0.01562       -0.01562        0.00000
 BRILLOUIN|   497           0.00195       -0.01562        0.01562        0.00000
 BRILLOUIN|   498           0.00195       -0.01562        0.04688        0.00000
 BRILLOUIN|   499           0.00195       -0.01562        0.07812        0.00000
 BRILLOUIN|   500           0.00195       -0.01562        0.10938        0.00000
 BRILLOUIN|   501           0.00195       -0.01562        0.14062        0.00000
 BRILLOUIN|   502           0.00195       -0.01562        0.17188        0.00000
 BRILLOUIN|   503           0.00195       -0.01562        0.20312        0.00000
 BRILLOUIN|   504           0.00195       -0.01562        0.23438        0.00000
 BRILLOUIN|   505           0.00195       -0.01562        0.26562        0.00000
 BRILLOUIN|   506           0.00195       -0.01562        0.29688        0.00000
 BRILLOUIN|   507           0.00195       -0.01562        0.32812        0.00000
 BRILLOUIN|   508           0.00195       -0.01562        0.35938        0.00000
 BRILLOUIN|   509           0.00195       -0.01562        0.39062        0.00000
 BRILLOUIN|   510           0.00195       -0.01562        0.42188        0.00000
 BRILLOUIN|   511           0.00195       -0.01562        0.45312        0.00000
 BRILLOUIN|   512           0.00195       -0.01562        0.48438        0.00000
 *******************************************************************************

 *******************************************************************************
 *******************************************************************************
 **                                                                           **
 **     #####                         ##              ##                      **
 **    ##   ##            ##          ##              ##                      **
 **   ##     ##                       ##            ######                    **
 **   ##     ##  ##   ##  ##   #####  ##  ##   ####   ##    #####    #####    **
 **   ##     ##  ##   ##  ##  ##      ## ##   ##      ##   ##   ##  ##   ##   **
 **   ##  ## ##  ##   ##  ##  ##      ####     ###    ##   ######   ######    **
 **    ##  ###   ##   ##  ##  ##      ## ##      ##   ##   ##       ##        **
 **     #######   #####   ##   #####  ##  ##  ####    ##    #####   ##        **
 **           ##                                                    ##        **
 **                                                                           **
 **                                                ... make the atoms dance   **
 **                                                                           **
 **            Copyright (C) by CP2K developers group (2000-2025)             **
 **                      J. Chem. Phys. 152, 194103 (2020)                    **
 **                                                                           **
 *******************************************************************************

 DFT| Spin restricted Kohn-Sham (RKS) calculation                            RKS
 DFT| Multiplicity                                                             1
 DFT| Number of spin states                                                    1
 DFT| Charge                                                                   0
 DFT| Self-interaction correction (SIC)                                       NO
 DFT| Cutoffs: density                                              1.000000E-10
 DFT|          gradient                                             1.000000E-10
 DFT|          tau                                                  1.000000E-10
 DFT|          cutoff_smoothing_range                               0.000000E+00
 DFT| XC density smoothing                                                  NONE
 DFT| XC derivatives                                                          PW

 FUNCTIONAL| PBE:
 FUNCTIONAL| J.P.Perdew, K.Burke, M.Ernzerhof, Phys. Rev. Letter, vol. 77, n 18,
 FUNCTIONAL|  pp. 3865-3868, (1996) {spin unpolarized}                          


 QS| Method:                                                                GAPW
 QS| Density plane wave grid type                        NON-SPHERICAL FULLSPACE
 QS| Number of grid levels:                                                    4
 QS| Density cutoff [a.u.]:                                                250.0
 QS| Multi grid cutoff [a.u.]: 1) grid level                               250.0
 QS|                           2) grid level                                83.3
 QS|                           3) grid level                                27.8
 QS|                           4) grid level                                 9.3
 QS| Grid level progression factor:                                          3.0
 QS| Relative density cutoff [a.u.]:                                        50.0
 QS| Interaction thresholds: eps_pgf_orb:                                1.0E-12
 QS|                         eps_filter_matrix:                          0.0E+00
 QS|                         eps_core_charge:                            1.0E-14
 QS|                         eps_rho_gspace:                             1.0E-12
 QS|                         eps_rho_rspace:                             1.0E-12
 QS|                         eps_gvg_rspace:                             1.0E-06
 QS|                         eps_ppl:                                    1.0E-02
 QS|                         eps_ppnl:                                   1.0E-08
 QS| GAPW|      One center basis from orbital basis primitives
 QS| GAPW|                   eps_fit:                                    1.0E-04
 QS| GAPW|                   eps_iso:                                    1.0E-12
 QS| GAPW|                   eps_svd:                                    1.0E-08
 QS| GAPW|                   eps_cpc:                                    1.0E-12
 QS| GAPW|   atom-r-grid: quadrature:                                     GC_LOG
 QS| GAPW|      atom-s-grid:  max l :                                          6
 QS| GAPW|      max_l_rho0 :                                                   2
 QS| GAPW|      At least one kind is NOT PAW, i.e. it has only soft AO 
 QS| GAPW|      The NOT PAW atoms are treated fully GPW


 ATOMIC KIND INFORMATION

  1. Atomic kind: Mo                                    Number of atoms:       1

     Orbital Basis Set                                   DZVP-MOLOPT-PBE-GTH-q14

       Number of orbital shell sets:                                           1
       Number of orbital shells:                                               8
       Number of primitive Cartesian functions:                                6
       Number of Cartesian basis functions:                                   31
       Number of spherical basis functions:                                   26
       Norm type:                                                              2

       Normalised Cartesian orbitals:

                        Set   Shell   Orbital            Exponent    Coefficient

                          1       1    2s                2.544684      -0.188075
                                                         2.316245       0.296669
                                                         1.083413       0.433312
                                                         0.493050       0.017917
                                                         0.171157       0.067610
                                                         0.057249       0.008222

                          1       2    3s                2.544684      -0.583575
                                                         2.316245       0.348793
                                                         1.083413       0.149394
                                                         0.493050       0.143576
                                                         0.171157      -0.084316
                                                         0.057249      -0.067836

                          1       3    4s                2.544684       0.985904
                                                         2.316245       0.700484
                                                         1.083413      -0.090132
                                                         0.493050      -0.181791
                                                         0.171157       0.061855
                                                         0.057249      -0.047132

                          1       4    3px               2.544684       2.385025
                                                         2.316245      -1.995598
                                                         1.083413      -0.348630
                                                         0.493050      -0.168348
                                                         0.171157      -0.074762
                                                         0.057249      -0.009095
                          1       4    3py               2.544684       2.385025
                                                         2.316245      -1.995598
                                                         1.083413      -0.348630
                                                         0.493050      -0.168348
                                                         0.171157      -0.074762
                                                         0.057249      -0.009095
                          1       4    3pz               2.544684       2.385025
                                                         2.316245      -1.995598
                                                         1.083413      -0.348630
                                                         0.493050      -0.168348
                                                         0.171157      -0.074762
                                                         0.057249      -0.009095

                          1       5    4px               2.544684       1.680915
                                                         2.316245      -1.701974
                                                         1.083413      -0.295783
                                                         0.493050      -0.016655
                                                         0.171157       0.117406
                                                         0.057249       0.015577
                          1       5    4py               2.544684       1.680915
                                                         2.316245      -1.701974
                                                         1.083413      -0.295783
                                                         0.493050      -0.016655
                                                         0.171157       0.117406
                                                         0.057249       0.015577
                          1       5    4pz               2.544684       1.680915
                                                         2.316245      -1.701974
                                                         1.083413      -0.295783
                                                         0.493050      -0.016655
                                                         0.171157       0.117406
                                                         0.057249       0.015577

                          1       6    4dx2              2.544684     -22.567275
                                                         2.316245       8.400806
                                                         1.083413       2.941227
                                                         0.493050      -0.248714
                                                         0.171157       0.016061
                                                         0.057249      -0.000063
                          1       6    4dxy              2.544684     -39.087666
                                                         2.316245      14.550622
                                                         1.083413       5.094354
                                                         0.493050      -0.430786
                                                         0.171157       0.027818
                                                         0.057249      -0.000108
                          1       6    4dxz              2.544684     -39.087666
                                                         2.316245      14.550622
                                                         1.083413       5.094354
                                                         0.493050      -0.430786
                                                         0.171157       0.027818
                                                         0.057249      -0.000108
                          1       6    4dy2              2.544684     -22.567275
                                                         2.316245       8.400806
                                                         1.083413       2.941227
                                                         0.493050      -0.248714
                                                         0.171157       0.016061
                                                         0.057249      -0.000063
                          1       6    4dyz              2.544684     -39.087666
                                                         2.316245      14.550622
                                                         1.083413       5.094354
                                                         0.493050      -0.430786
                                                         0.171157       0.027818
                                                         0.057249      -0.000108
                          1       6    4dz2              2.544684     -22.567275
                                                         2.316245       8.400806
                                                         1.083413       2.941227
                                                         0.493050      -0.248714
                                                         0.171157       0.016061
                                                         0.057249      -0.000063

                          1       7    5dx2              2.544684       0.273804
                                                         2.316245       3.109207
                                                         1.083413      -0.209533
                                                         0.493050       0.289178
                                                         0.171157       0.022622
                                                         0.057249       0.000731
                          1       7    5dxy              2.544684       0.474242
                                                         2.316245       5.385305
                                                         1.083413      -0.362922
                                                         0.493050       0.500872
                                                         0.171157       0.039182
                                                         0.057249       0.001265
                          1       7    5dxz              2.544684       0.474242
                                                         2.316245       5.385305
                                                         1.083413      -0.362922
                                                         0.493050       0.500872
                                                         0.171157       0.039182
                                                         0.057249       0.001265
                          1       7    5dy2              2.544684       0.273804
                                                         2.316245       3.109207
                                                         1.083413      -0.209533
                                                         0.493050       0.289178
                                                         0.171157       0.022622
                                                         0.057249       0.000731
                          1       7    5dyz              2.544684       0.474242
                                                         2.316245       5.385305
                                                         1.083413      -0.362922
                                                         0.493050       0.500872
                                                         0.171157       0.039182
                                                         0.057249       0.001265
                          1       7    5dz2              2.544684       0.273804
                                                         2.316245       3.109207
                                                         1.083413      -0.209533
                                                         0.493050       0.289178
                                                         0.171157       0.022622
                                                         0.057249       0.000731

                          1       8    5fx3              2.544684       0.050018
                                                         2.316245      -0.051094
                                                         1.083413      -0.302285
                                                         0.493050      -0.146467
                                                         0.171157      -0.013670
                                                         0.057249      -0.000239
                          1       8    5fx2y             2.544684       0.111843
                                                         2.316245      -0.114249
                                                         1.083413      -0.675930
                                                         0.493050      -0.327511
                                                         0.171157      -0.030567
                                                         0.057249      -0.000535
                          1       8    5fx2z             2.544684       0.111843
                                                         2.316245      -0.114249
                                                         1.083413      -0.675930
                                                         0.493050      -0.327511
                                                         0.171157      -0.030567
                                                         0.057249      -0.000535
                          1       8    5fxy2             2.544684       0.111843
                                                         2.316245      -0.114249
                                                         1.083413      -0.675930
                                                         0.493050      -0.327511
                                                         0.171157      -0.030567
                                                         0.057249      -0.000535
                          1       8    5fxyz             2.544684       0.193717
                                                         2.316245      -0.197885
                                                         1.083413      -1.170745
                                                         0.493050      -0.567265
                                                         0.171157      -0.052944
                                                         0.057249      -0.000927
                          1       8    5fxz2             2.544684       0.111843
                                                         2.316245      -0.114249
                                                         1.083413      -0.675930
                                                         0.493050      -0.327511
                                                         0.171157      -0.030567
                                                         0.057249      -0.000535
                          1       8    5fy3              2.544684       0.050018
                                                         2.316245      -0.051094
                                                         1.083413      -0.302285
                                                         0.493050      -0.146467
                                                         0.171157      -0.013670
                                                         0.057249      -0.000239
                          1       8    5fy2z             2.544684       0.111843
                                                         2.316245      -0.114249
                                                         1.083413      -0.675930
                                                         0.493050      -0.327511
                                                         0.171157      -0.030567
                                                         0.057249      -0.000535
                          1       8    5fyz2             2.544684       0.111843
                                                         2.316245      -0.114249
                                                         1.083413      -0.675930
                                                         0.493050      -0.327511
                                                         0.171157      -0.030567
                                                         0.057249      -0.000535
                          1       8    5fz3              2.544684       0.050018
                                                         2.316245      -0.051094
                                                         1.083413      -0.302285
                                                         0.493050      -0.146467
                                                         0.171157      -0.013670
                                                         0.057249      -0.000239

     RI Auxiliary Basis Set                                                   RI

       Number of orbital shell sets:                                          17
       Number of orbital shells:                                              17
       Number of primitive Cartesian functions:                               17
       Number of Cartesian basis functions:                                   91
       Number of spherical basis functions:                                   69
       Norm type:                                                              2

       Normalised Cartesian orbitals:

                        Set   Shell   Orbital            Exponent    Coefficient

                          1       1    1s                0.210000       0.221093

                          2       1    1px               0.210000       0.202635
                          2       1    1py               0.210000       0.202635
                          2       1    1pz               0.210000       0.202635

                          3       1    1dx2              0.346956       0.258160
                          3       1    1dxy              0.346956       0.447147
                          3       1    1dxz              0.346956       0.447147
                          3       1    1dy2              0.346956       0.258160
                          3       1    1dyz              0.346956       0.447147
                          3       1    1dz2              0.346956       0.258160

                          4       1    1s                0.360392       0.331506

                          5       1    1fx3              0.410523       0.198593
                          5       1    1fx2y             0.410523       0.444066
                          5       1    1fx2z             0.410523       0.444066
                          5       1    1fxy2             0.410523       0.444066
                          5       1    1fxyz             0.410523       0.769146
                          5       1    1fxz2             0.410523       0.444066
                          5       1    1fy3              0.410523       0.198593
                          5       1    1fy2z             0.410523       0.444066
                          5       1    1fyz2             0.410523       0.444066
                          5       1    1fz3              0.410523       0.198593

                          6       1    1px               0.498778       0.597481
                          6       1    1py               0.498778       0.597481
                          6       1    1pz               0.498778       0.597481

                          7       1    1gx4              0.570000       0.237187
                          7       1    1gx3y             0.570000       0.627538
                          7       1    1gx3z             0.570000       0.627538
                          7       1    1gx2y2            0.570000       0.810149
                          7       1    1gx2yz            0.570000       1.403218
                          7       1    1gx2z2            0.570000       0.810149
                          7       1    1gxy3             0.570000       0.627538
                          7       1    1gxy2z            0.570000       1.403218
                          7       1    1gxyz2            0.570000       1.403218
                          7       1    1gxz3             0.570000       0.627538
                          7       1    1gy4              0.570000       0.237187
                          7       1    1gy3z             0.570000       0.627538
                          7       1    1gy2z2            0.570000       0.810149
                          7       1    1gyz3             0.570000       0.627538
                          7       1    1gz4              0.570000       0.237187

                          8       1    1dx2              0.576698       0.628158
                          8       1    1dxy              0.576698       1.088002
                          8       1    1dxz              0.576698       1.088002
                          8       1    1dy2              0.576698       0.628158
                          8       1    1dyz              0.576698       1.088002
                          8       1    1dz2              0.576698       0.628158

                          9       1    1s                0.619083       0.497418

                         10       1    1s                1.092167       0.761424

                         11       1    1fx3              1.103628       1.837832
                         11       1    1fx2y             1.103628       4.109516
                         11       1    1fx2z             1.103628       4.109516
                         11       1    1fxy2             1.103628       4.109516
                         11       1    1fxyz             1.103628       7.117891
                         11       1    1fxz2             1.103628       4.109516
                         11       1    1fy3              1.103628       1.837832
                         11       1    1fy2z             1.103628       4.109516
                         11       1    1fyz2             1.103628       4.109516
                         11       1    1fz3              1.103628       1.837832

                         12       1    1px               1.390701       2.152694
                         12       1    1py               1.390701       2.152694
                         12       1    1pz               1.390701       2.152694

                         13       1    1dx2              1.439171       3.112475
                         13       1    1dxy              1.439171       5.390965
                         13       1    1dxz              1.439171       5.390965
                         13       1    1dy2              1.439171       3.112475
                         13       1    1dyz              1.439171       5.390965
                         13       1    1dz2              1.439171       3.112475

                         14       1    1gx4              1.615953       4.164995
                         14       1    1gx3y             1.615953      11.019542
                         14       1    1gx3z             1.615953      11.019542
                         14       1    1gx2y2            1.615953      14.226167
[...]

 M. Krack.
 Theor. Chem. Acc. 114, 145-152 (2005).
 Pseudopotentials for H to Kr optimized for gradient-corrected 
 exchange-correlation functionals.
 https://doi.org/10.1007/s00214-005-0655-y

 M. Frigo, S. G. Johnson.
 Proc. IEEE 93, 216-231 (2005).
 The design and implementation of FFTW3.
 https://doi.org/10.1109/JPROC.2004.840301

 M. Krack, M. Parrinello.
 Phys. Chem. Chem. Phys. 2, 2105-2112 (2000).
 All-electron ab-initio molecular dynamics.
 https://doi.org/10.1039/b001167n

 G. Lippert, J. Hutter, M. Parrinello.
 Theor. Chem. Acc. 103, 124-140 (1999).
 The Gaussian and augmented-plane-wave density functional method for ab initio 
 molecular dynamics simulations.
 https://doi.org/10.1007/s002140050523

 C. Hartwigsen, S. Goedecker, J. Hutter.
 Phys. Rev. B 58, 3641-3662 (1998).
 Relativistic separable dual-space Gaussian pseudopotentials from H to Rn.
 https://doi.org/10.1103/PhysRevB.58.3641

 S. Goedecker, M. Teter, J. Hutter.
 Phys. Rev. B 54, 1703-1710 (1996).
 Separable dual-space Gaussian pseudopotentials.
 https://doi.org/10.1103/PhysRevB.54.1703

 J. P. Perdew, K. Burke, M. Ernzerhof.
 Phys. Rev. Lett. 77, 3865-3868 (1996).
 Generalized gradient approximation made simple.
 https://doi.org/10.1103/PhysRevLett.77.3865


 -------------------------------------------------------------------------------
 -                                                                             -
 -                                T I M I N G                                  -
 -                                                                             -
 -------------------------------------------------------------------------------
 SUBROUTINE                       CALLS  ASD         SELF TIME        TOTAL TIME
                                MAXIMUM       AVERAGE  MAXIMUM  AVERAGE  MAXIMUM
 CP2K                                 1  1.0     0.01     0.02 29961.05 29961.05
 qs_energies                          1  2.0     0.00     0.00 29959.97 29960.02
 qs_energies_properties               1  3.0     0.00     0.00 29701.37 29701.42
 post_scf_bandstructure               1  4.0     0.00     0.00 29701.37 29701.42
 gw                                   1  5.0     0.00     0.00 29609.84 29609.85
 gw_calc_small_cell_full_kp           1  6.0     0.00     0.00 29138.41 29138.42
 dbt_total                      *******  9.8    81.44    89.69 16362.17 17421.50
 dbt_contract                   ******* 10.6   134.71   152.87 13177.61 13965.48
 dbt_tas_multiply               6475904 13.0    13.97    15.46 12202.01 12995.68
 dbt_tas_total                  6475904 14.0   715.16   789.32 12193.18 12986.07
 compute_Sigma_c                      1  7.0     0.01     0.01 11101.11 11101.14
 compute_W_real_space                 1  7.0    23.64    24.17  9613.18  9613.34
 compute_Minv_and_Vsqrt               1  8.0     0.26     0.27  8515.59  8515.88
 build_2c_coulomb_matrix_kp_sma       2  9.0    10.48    11.32  8498.68  8498.76
 compute_chi                          1  7.0     0.14     0.15  7974.55  7974.71
 build_2c_coulomb_matrix_kp_sma  655360 10.0  7225.11  7549.19  7225.11  7549.19
 contract_to_Sigma                  427  8.0   119.49   134.05  6380.00  6979.85
 dbt_tas_dbm                    6475904 15.0    12.73    14.80  4964.55  5363.31
 dbm_multiply                   6475904 17.0  4935.97  5335.01  4935.97  5335.01
 contract_M_occ_vir_to_chi          210  8.0   203.53   237.58  3316.90  4213.56
 dbt_tas_estimate_result_nze    3237952 13.5   897.86   957.67  3794.76  4166.76
 contract_W                         217  8.0    17.12    17.85  3788.35  4156.93
 contract_to_Sigma_3c_x_G       5177375  9.0    12.58    13.64  3716.00  4109.37
 mp_sync                        ******* 11.9  2480.58  4022.09  2480.58  4022.09
 dbt_copy                       ******* 11.1    78.33    88.03  3532.98  3837.00
 G_times_3c                       24480  8.0    21.13    22.13  3500.12  3762.88
 contract_to_Sigma_contract       24888  9.0    24.06    26.66  2517.50  2921.83
 dbt_reshape                    8537559 12.0  1922.65  2190.98  2548.93  2890.42
 dbt_tas_mm_2                   2241064 16.1     5.36     6.96  2083.91  2502.78
 get_t_3c_int                   8244119  9.6    87.67   111.27  1870.41  2130.94
 dbt_tas_mm_3T                  2754118 16.2     3.79     4.73  1765.67  1946.15
 reshape_mm_small               6475904 15.0   612.75   701.78  1459.85  1590.68
 dbt_tas_reshape                7280730 15.5    99.14   115.01  1265.01  1361.14
 dbt_tas_mm_1N                  1762608 15.5     2.28     2.66  1099.26  1192.20
 convert_to_new_pgrid           ******* 15.0   132.27   150.15   908.21   980.82
 dbt_tas_create_split           ******* 16.0    23.10    24.98   781.90   892.87
 dbt_tas_create_split_rows_or_c ******* 17.0    91.42   101.77   758.80   868.41
 dbm_copy                       ******* 16.0   775.94   841.57   775.94   841.57
 dbm_reserve_blocks             ******* 16.6   709.70   824.43   709.70   824.43
 reshape_mm_compatible          6475904 15.0   121.02   127.27   724.29   803.20
 dbt_tas_reserve_blocks_index   ******* 15.7    39.28    42.18   692.38   785.89
 dbt_remap                       436057 11.0    67.30    75.63   594.87   635.94
 dbt_tas_replicate              6475904 15.0   322.22   350.92   575.49   630.44
 dbt_tas_distribution_new       ******* 15.8   285.55   318.57   537.96   608.93
 dbt_tas_reshape_buffer_fill    7280730 16.5   565.97   605.22   565.97   605.22
 dbt_tas_copy                   5395069 12.6   336.55   411.79   498.04   603.44
 change_split                   8909030 15.5    43.69    47.72   500.01   563.93
 mp_sum_dm                       655403 10.0   507.26   536.87   507.26   536.87
 mp_cart_create                 ******* 16.7   381.03   437.55   410.97   474.93
 create_and_init_bs_env_for_gw        1  6.0     0.00     0.00   471.44   471.45
 dbt_reserve_blocks_index_array 9756255 13.0    13.80    16.00   402.98   471.14
 add_V_L                         327680 10.0    14.54   470.14    14.54   470.14
 dbt_reserve_blocks_index       9927752 13.9    18.11    21.69   400.56   467.13
 dbt_copy_nocomm                1807080 11.0   237.63   331.73   329.40   463.09
 dbt_tas_reshape_buffer_obtain  7280730 16.5   310.74   343.22   419.84   456.74
 G_occ_vir                          121  8.0     0.51     0.63   437.05   439.58
 compute_3c_integrals                 1  7.0     0.11     0.11   429.74   429.74
 build_3c_integrals                   1  8.0   384.31   416.90   396.36   428.97
 add_rs_to_ikp                  *******  9.9   381.07   393.26   381.07   393.26
 dbcsr_complete_redistribute     416697  9.9    14.82    19.49   348.22   392.63
 add_ikp_to_rs                  *******  9.9   316.57   372.03   316.57   372.03
 trafo_rs_to_ikp                  10736  8.1     7.90     8.57   360.95   370.64
 fm_to_local_tensor              146072  9.0     3.33     4.22   351.78   351.84
 compute_Sigma_x                      1  7.0     0.00     0.00   332.95   332.99
 dbt_tas_reserve_blocks_templat ******* 14.1    66.68    79.69   271.20   330.56
 dbt_communicate_buffer         8537559 13.0   292.06   328.36   292.06   328.36
 copy_dbcsr_to_fm                225358  8.3     2.63     2.82   315.20   320.56
 add_ikp_to_all_rs                 9848  8.0     6.76     7.12   281.94   292.74
 mp_comm_dup                    ******* 18.6   232.67   266.06   246.67   284.66
 scf_env_do_scf                       1  3.0     0.00     0.00   258.38   258.38
 scf_env_do_scf_inner_loop           44  4.0     0.01     0.01   258.38   258.38
 fm_to_local_array                  934  8.1    75.24    77.38   255.85   256.93
 dbm_add                        6475904 15.0   221.61   248.64   221.61   248.64
 qs_scf_new_mos_kp                   44  5.0     0.00     0.00   248.51   248.57
 do_general_diag_kp                  44  6.0     0.50     0.54   248.51   248.57
 dbt_tas_create_new             ******* 15.3   205.15   229.08   205.15   229.08
 mp_alltoall_i22                 746231 10.3   169.49   224.22   169.49   224.22
 copy_fm_to_dbcsr                191339  9.5     0.88     0.96   168.76   212.52
 dbt_permute_index              ******* 12.2   165.48   185.40   185.77   210.74
 dbt_tas_merge                  2241064 15.1   114.68   154.98   148.73   203.70
 mp_comm_split_direct           ******* 18.0   161.00   181.42   170.95   194.48
 global_matrix_to_local_matrix   146072 10.0     2.97     5.52   143.86   188.96
 mp_sum_dm3                        1039  9.0   185.71   186.64   185.71   186.64
 dbcsr_desymmetrize_deep         329534  8.6     5.65     6.46   177.87   185.88
 mp_comm_free                   ******* 15.7   163.64   180.43   163.64   180.43
 local_dbt_to_global_fm              91  8.0     0.35     0.38   168.54   168.54
 fm_add_ikp_to_rs                123904  9.0    77.91    79.82   119.33   166.41
 dbt_align_index                9713856 11.5    23.72    25.76   141.67   152.68
 mp_waitall_1                   1156540 11.6   101.91   141.55   101.91   141.55
 dbt_tas_communicate_buffer     ******* 17.3   128.98   141.44   128.98   141.44
 send_data                       146072 11.0     0.19     0.22   104.17   140.45
 communicate_buffer              146072 12.0     2.80    24.05   103.97   140.26
 dbm_filter                     9491831 14.9   105.02   136.39   105.02   136.39
 dbt_tas_mp_comm                3640365 13.2    13.96    15.32   115.11   134.00
 power                            20408  8.0    13.12    13.38   131.24   133.14
 dbt_reserve_blocks_template    1807080 12.0     8.45    12.02    91.78   131.36
 dbt_tas_reshape_communicate_bu 7280730 16.5    10.02    11.10   118.71   130.79
 cp_cfm_gemm                     284468 10.9   113.07   130.22   113.07   130.22
 parallel_gemm_cfm               280952  8.9     0.26     0.29   112.85   130.01
 parallel_gemm_cfm_gemm          280952  9.9     0.26     0.31   112.59   129.76
 add_R                          *******  9.3    85.77    91.35   115.82   123.17
 diag_complex                     20408  9.0   118.12   119.83   118.12   119.83
 compute_QP_energies                  1  7.0     0.07     0.11   116.62   116.66
 trafo_to_k_and_nn                71492  8.0     0.50     0.59   116.34   116.38
 mp_alltoall_d11v               2238693 10.7   106.92   115.46   106.92   115.46
 mp_alltoall_i11v               1579625 10.6   103.14   106.48   103.14   106.48
 fm_MWM_R_t_to_local_tensor_W_R      30  8.0     0.05     0.06   102.60   102.60
 reshape_mm_template             872114 15.5    47.29    51.30    83.31    90.75
 dbt_destroy                    ******* 11.2    72.98    81.80    79.25    88.77
 dbt_distribution_new_expert    1164268 12.2    14.01    16.45    76.93    88.38
 dbm_scale                      ******* 13.3    61.24    86.51    61.24    86.51
 mult_W_with_Minv                    30  8.0     1.19     1.22    83.72    83.75
 fm_trafo_rs_to_ikp               71492  9.0    46.48    47.80    74.51    81.45
 mp_cart_get                    ******* 16.0    62.97    71.64    62.97    71.64
 mp_comm_size                   ******* ****    51.17    67.03    51.17    67.03
 dbcsr_finalize                 1726513 11.2    12.29    15.31    51.74    65.84
 get_data                        146072 11.0     6.67    61.68     7.09    62.14
 get_V_tr_R                          34  9.0     0.17     0.19    60.09    60.15
 cp_cfm_heevd                      4864  7.5     0.01     0.01    58.84    58.94
 cp_cfm_heevd_base                 4864  8.5    58.83    58.93    58.83    58.93
 local_dbt_to_global_mat          87451  9.0     1.10     1.37    38.09    58.00
 is_cell_in_index_to_cell       *******  9.8    51.15    56.33    51.15    56.33
 hybrid_alltoall_any             329534  9.6     1.66     1.82    48.20    50.61
 kpoint_density_transform            44  7.0     0.15     0.17    49.59    49.61
 local_matrix_to_global_matrix    87451 10.0     0.39     0.42    29.62    49.38
 mp_cart_sub                     450795 10.3    49.05    49.27    49.05    49.27
 dbt_create_new                  582134 11.7     9.47    13.56    43.03    48.67
 mp_comm_rank                   ******* ****    38.93    48.41    38.93    48.41
 dbt_tas_reshape_get_coord      7280730 16.5    42.02    48.41    42.02    48.41
 dos_pdos_ldos                        1  5.0     0.01     0.01    45.73    45.77
 mp_isend_dv                    ******* 12.4     1.92    45.36     1.92    45.36
 dbcsr_filter_anytype            656131 11.0     4.63     5.11    32.55    44.50
 SOC_ev                            2344  6.0     0.03     0.03    42.81    42.86
 dbt_create_3c_R1_R2                 62  8.0     5.84     6.27    36.15    39.49
 mp_alltoall_i                  ******* 15.0    32.23    37.39    32.23    37.39
 dbt_create_template            3309988  9.0    32.20    35.44    32.20    35.44
 cp_fm_start_copy_general        135168  7.3     1.24     2.28    33.51    34.12
 dbt_create_matrix               146072 10.0     1.86     2.08    30.53    33.60
 dbcsr_merge_all                 643123 11.9    19.12    24.82    25.17    32.56
 create_and_init_bs_env               1  5.0     0.00     0.00    31.30    31.30
 compute_cfm_mo_coeff_kp_and_ei       1  6.0     0.01     0.01    31.29    31.29
 rskp_transform                   52088  7.2     0.74    29.24     0.74    29.24
 rsmat_to_kp                       7032  7.2     0.12     0.12    28.01    28.19
 mp_allgather_i                  270336  8.3    26.16    27.67    26.16    27.67
 mp_sum_l                       ******* 15.2    22.27    24.86    22.27    24.86
 set_blocks                       87451 11.0     1.85     9.43     9.61    24.30
 dbt_pgrid_create_expert        1164271 13.2     2.99     4.19    20.70    23.98
 dbt_tas_replicate_communicate_ 4516726 15.9     6.08     6.76    21.27    23.06
 destroy_t_2d                        62  8.0     5.11     7.10    20.48    22.17
 cp_cfm_geeig_canon                1172  7.0     0.01     0.01    21.56    21.60
 dbt_nd_mp_comm                  582129 11.7     2.25     2.60    15.68    17.98
 mp_sum_i                       5817156 15.9    14.45    17.94    14.45    17.94
 dbt_tas_reshape_alltoall       7280730 16.5     8.21     9.16    14.05    15.82
 setup_cells_3c                       1  7.0     0.40     0.41    15.61    15.61
 send_sizes_1                    146072 11.0     0.19     0.21    11.79    15.22
 build_3c_integral_block          14607  8.0     9.64    11.44    13.66    15.21
 heuristic_RI_regularization          1  7.0     0.00     0.00    14.99    14.99
 mp_isend_im2                   ******* 12.9     0.73    14.70     0.73    14.70
 soc                                  1  5.0     0.00     0.00    14.50    14.50
 H_KS_spinor_kp                       1  6.0     0.02     0.02    14.44    14.45
 dbcsr_work_create               972657 10.6     7.73     8.94    11.40    13.17
 dbcsr_iterator_start           3637637 11.1    11.22    11.70    12.36    12.93
 mp_max_i                       ******* 11.6    11.03    12.76    11.03    12.76
 comm_data                        87451 11.0     0.41     2.31     9.64    12.45
 transform_dmat                   22528  8.0     0.30    11.97     0.30    11.97
 dbcsr_work_destroy_all          972657 11.5     6.43     8.02     9.22    11.25
 dbt_tas_merge_communicate_buff 2241064 16.1     3.15     3.93     8.25    11.13
 mp_waitall_2                    174902 12.0     8.88    10.74     8.88    10.74
 dbt_distribution_destroy       1164268 12.2     7.44     8.71     9.17    10.68
 mp_cart_rank                   9033908 15.9     8.58    10.58     8.58    10.58
 mp_bcast_i                     ******* 18.0     8.79    10.43     8.79    10.43
 alloc_block_3c                       1  9.0     0.45     0.46     9.81     9.99
 dbt_copy_matrix_to_tensor       146072 10.0     3.54     4.01     8.77     9.63
 copy_fm_to_dbcsr_bc             191339 10.5     2.83     3.01     8.96     9.50
 get_Minv_Vtr_Minv_R                  1  8.0     0.05     0.06     9.33     9.39
 mp_dims_create                 ******* 14.4     7.20     8.96     7.20     8.96
 dbt_tas_replicate_alltoall     4516726 15.9     4.87     5.47     7.79     8.90
 dbcsr_create_new               1356532 10.2     6.95     7.39     8.29     8.78
 send_sizes_2                    146072 11.0     0.20     0.23     7.26     8.75
 mp_sum_dv                        78661  8.9     4.63     8.21     4.63     8.21
 dbt_buffer_get_index           ******* 16.8     7.23     8.03     7.23     8.03
 dbcsr_iterator_stop            3637637 11.1     6.31     6.54     7.23     7.45
 reserve_blocks                  146072 11.0     0.77     0.85     7.01     7.45
 dbcsr_data_release             ******* 12.2     6.18     7.28     6.18     7.28
 build_2c_integrals                  34 10.0     0.16     4.07     0.34     6.44
 dbcsr_data_new                 ******* 11.6     5.49     6.24     5.49     6.24
 dbt_tas_merge_alltoall         2241064 16.1     3.07     3.79     5.03     6.18
 fill_buffer                      87451 11.0     2.89     5.41     3.14     5.65
 trafo_V_xc_R_to_kp                   1  7.0     0.01     0.01     5.47     5.54
 copy_dbcsr_to_fm_bc             225358  9.3     2.17     2.35     4.80     5.01
 comm_size                        87451 11.0     0.14     0.16     4.77     4.98
 qs_ks_update_qs_env                 44  5.0     0.00     0.00     4.88     4.93
 mp_bcast_iv                     540717  8.3     4.49     4.89     4.49     4.89
 dbcsr_destroy                  1249247  9.8     2.33     2.50     4.39     4.83
 qs_ks_build_kohn_sham_matrix        47  7.1     0.02     0.02     4.57     4.62
 rebuild_ks_matrix                   44  6.0     0.00     0.00     4.28     4.32
 dbcsr_reserve_blocks            562269 12.2     2.35     3.62     2.82     4.29
 tree_to_linear_d                478517 12.9     3.36     4.13     3.36     4.13
 dbt_reserve_blocks_matrix_to_t  146072 11.0     1.22     1.35     3.67     4.08
 transfer_pw2rs                     236 10.6     0.00     0.00     3.86     3.99
 abc_contract_xsmm                53752  9.0     3.59     3.96     3.59     3.96
 add_to_DOS_PDOS                   4688  6.5     3.83     3.90     3.83     3.90
 transfer_pw2rs_250                  95 11.0     0.16     0.20     3.69     3.83
 sum_up_and_integrate                47  8.1     0.00     0.00     0.57     3.81
 integrate_v_rspace                  47  9.1     0.00     0.03     0.57     3.80
 setup_parallelization_Delta_R        1  7.0     0.00     0.00     3.76     3.76
 compute_n_tensor_ops_Delta_R         1  8.0     1.08     1.76     3.76     3.76
 integrate_vhg0_rspace               47  8.1     0.00     0.00     3.46     3.59
 transfer_rs2pw                     229  8.4     0.00     0.00     3.40     3.49
 qs_rho_update_rho_low               45  5.0     0.00     0.00     3.41     3.42
 calculate_rho_elec                  45  6.0     0.00     0.01     3.40     3.41
 transfer_rs2pw_250                  94 10.0     0.19     0.21     3.24     3.35
 dbcsr_set                      1417410 10.7     1.38     1.50     2.81     3.34
 grid_integrate_task_list            47 10.1     0.09     3.32     0.09     3.32
 density_rs2pw                       45  7.0     0.00     0.00     3.18     3.27
 mp_sendrecv_dv                   29083 10.4     3.16     3.26     3.16     3.26
 -------------------------------------------------------------------------------

 The number of warnings for this run is : 2
 
 -------------------------------------------------------------------------------
  **** **** ******  **  PROGRAM ENDED AT                 2025-03-13 23:13:37.131
 ***** ** ***  *** **   PROGRAM RAN ON                              f01r01c02s10
 **    ****   ******    PROGRAM RAN BY                                   di38fab
 ***** **    ** ** **   PROGRAM PROCESS ID                               1955245
  **** **  *******  **  PROGRAM STOPPED IN /hppfs/scratch/04/di38fab/04_TMD/1_Mo
                                           S2_/DZVPnonaug
